# vtk DataFile Version 2.0
scalar
ASCII
DATASET UNSTRUCTURED_GRID
POINTS 4469 float
98.27 2.6941 2.6941
97.635 2.5958 2.7924
97.0 2.4975 2.8907
96.365 2.3992 2.9889
95.73 2.3016 3.0865
94.937 2.3016 3.0865
94.143 2.3016 3.0865
93.349 2.3016 3.0865
92.555 2.3016 3.0865
91.762 2.3016 3.0865
90.968 2.3016 3.0865
90.174 2.3016 3.0865
89.38 2.3016 3.0865
88.745 2.3992 2.9889
88.11 2.4975 2.8907
87.475 2.5958 2.7924
86.84 2.6941 2.6941
87.475 2.7924 2.5958
88.11 2.8907 2.4975
88.745 2.9889 2.3992
89.38 3.0865 2.3016
90.174 3.0865 2.3016
90.968 3.0865 2.3016
91.762 3.0865 2.3016
92.555 3.0865 2.3016
93.349 3.0865 2.3016
94.143 3.0865 2.3016
94.937 3.0865 2.3016
95.73 3.0865 2.3016
96.365 2.9889 2.3992
97.0 2.8907 2.4975
97.635 2.7924 2.5958
98.27 2.6941 2.6941
98.2049 2.9013 2.9013
97.5771 2.8041 2.9985
96.9493 2.707 3.0956
96.3216 2.6098 3.1928
95.6938 2.5133 3.2893
94.9098 2.5133 3.2893
94.1249 2.5133 3.2893
93.3399 2.5133 3.2893
92.555 2.5133 3.2893
91.771 2.5133 3.2893
90.9861 2.5133 3.2893
90.2011 2.5133 3.2893
89.4162 2.5133 3.2893
88.7884 2.6098 3.1928
88.1607 2.707 3.0956
87.5329 2.8041 2.9985
86.9051 2.9013 2.9013
87.5329 2.9985 2.8041
88.1607 3.0956 2.707
88.7884 3.1928 2.6098
89.4162 3.2893 2.5133
90.2011 3.2893 2.5133
90.9861 3.2893 2.5133
91.771 3.2893 2.5133
92.555 3.2893 2.5133
93.3399 3.2893 2.5133
94.1249 3.2893 2.5133
94.9098 3.2893 2.5133
95.6938 3.2893 2.5133
96.3216 3.1928 2.6098
96.9493 3.0956 2.707
97.5771 2.9985 2.8041
98.2049 2.9013 2.9013
98.1397 3.1086 3.1086
97.5192 3.0125 3.2046
96.8987 2.9165 3.3006
96.2781 2.8204 3.3967
95.6576 2.7251 3.492
94.8827 2.7251 3.492
94.1068 2.7251 3.492
93.3309 2.7251 3.492
92.555 2.7251 3.492
91.7801 2.7251 3.492
91.0042 2.7251 3.492
90.2283 2.7251 3.492
89.4524 2.7251 3.492
88.8318 2.8204 3.3967
88.2113 2.9165 3.3006
87.5908 3.0125 3.2046
86.9703 3.1086 3.1086
87.5908 3.2046 3.0125
88.2113 3.3006 2.9165
88.8318 3.3967 2.8204
89.4524 3.492 2.7251
90.2283 3.492 2.7251
91.0042 3.492 2.7251
91.7801 3.492 2.7251
92.555 3.492 2.7251
93.3309 3.492 2.7251
94.1068 3.492 2.7251
94.8827 3.492 2.7251
95.6576 3.492 2.7251
96.2781 3.3967 2.8204
96.8987 3.3006 2.9165
97.5192 3.2046 3.0125
98.1397 3.1086 3.1086
98.0746 3.3158 3.3158
97.4613 3.2209 3.4107
96.848 3.1259 3.5056
96.2347 3.031 3.6006
95.6214 2.9368 3.6948
94.8555 2.9368 3.6948
94.0887 2.9368 3.6948
93.3218 2.9368 3.6948
92.555 2.9368 3.6948
91.7891 2.9368 3.6948
91.0222 2.9368 3.6948
90.2554 2.9368 3.6948
89.4885 2.9368 3.6948
88.8753 3.031 3.6006
88.262 3.1259 3.5056
87.6487 3.2209 3.4107
87.0354 3.3158 3.3158
87.6487 3.4107 3.2209
88.262 3.5056 3.1259
88.8753 3.6006 3.031
89.4885 3.6948 2.9368
90.2554 3.6948 2.9368
91.0222 3.6948 2.9368
91.7891 3.6948 2.9368
92.555 3.6948 2.9368
93.3218 3.6948 2.9368
94.0887 3.6948 2.9368
94.8555 3.6948 2.9368
95.6214 3.6948 2.9368
96.2347 3.6006 3.031
96.848 3.5056 3.1259
97.4613 3.4107 3.2209
98.0746 3.3158 3.3158
98.0094 3.523 3.523
97.4034 3.4292 3.6168
96.7973 3.3354 3.7106
96.1913 3.2416 3.8044
95.5852 3.1485 3.8976
94.8284 3.1485 3.8976
94.0706 3.1485 3.8976
93.3128 3.1485 3.8976
92.555 3.1485 3.8976
91.7981 3.1485 3.8976
91.0403 3.1485 3.8976
90.2825 3.1485 3.8976
89.5247 3.1485 3.8976
88.9187 3.2416 3.8044
88.3126 3.3354 3.7106
87.7066 3.4292 3.6168
87.1005 3.523 3.523
87.7066 3.6168 3.4292
88.3126 3.7106 3.3354
88.9187 3.8044 3.2416
89.5247 3.8976 3.1485
90.2825 3.8976 3.1485
91.0403 3.8976 3.1485
91.7981 3.8976 3.1485
92.555 3.8976 3.1485
93.3128 3.8976 3.1485
94.0706 3.8976 3.1485
94.8284 3.8976 3.1485
95.5852 3.8976 3.1485
96.1913 3.8044 3.2416
96.7973 3.7106 3.3354
97.4034 3.6168 3.4292
98.0094 3.523 3.523
97.9443 3.7303 3.7303
97.3455 3.6376 3.8229
96.7467 3.5449 3.9156
96.1478 3.4522 4.0083
95.549 3.3602 4.1003
94.8012 3.3602 4.1003
94.0525 3.3602 4.1003
93.3037 3.3602 4.1003
92.555 3.3602 4.1003
91.8072 3.3602 4.1003
91.0584 3.3602 4.1003
90.3096 3.3602 4.1003
89.5609 3.3602 4.1003
88.9621 3.4522 4.0083
88.3633 3.5449 3.9156
87.7645 3.6376 3.8229
87.1656 3.7303 3.7303
87.7645 3.8229 3.6376
88.3633 3.9156 3.5449
88.9621 4.0083 3.4522
89.5609 4.1003 3.3602
90.3096 4.1003 3.3602
91.0584 4.1003 3.3602
91.8072 4.1003 3.3602
92.555 4.1003 3.3602
93.3037 4.1003 3.3602
94.0525 4.1003 3.3602
94.8012 4.1003 3.3602
95.549 4.1003 3.3602
96.1478 4.0083 3.4522
96.7467 3.9156 3.5449
97.3455 3.8229 3.6376
97.9443 3.7303 3.7303
97.8791 3.9375 3.9375
97.2876 3.8459 4.0291
96.696 3.7544 4.1206
96.1044 3.6628 4.2122
95.5128 3.5719 4.3031
94.7741 3.5719 4.3031
94.0344 3.5719 4.3031
93.2947 3.5719 4.3031
92.555 3.5719 4.3031
91.8162 3.5719 4.3031
91.0765 3.5719 4.3031
90.3368 3.5719 4.3031
89.5971 3.5719 4.3031
89.0055 3.6628 4.2122
88.4139 3.7544 4.1206
87.8223 3.8459 4.0291
87.2308 3.9375 3.9375
87.8223 4.0291 3.8459
88.4139 4.1206 3.7544
89.0055 4.2122 3.6628
89.5971 4.3031 3.5719
90.3368 4.3031 3.5719
91.0765 4.3031 3.5719
91.8162 4.3031 3.5719
92.555 4.3031 3.5719
93.2947 4.3031 3.5719
94.0344 4.3031 3.5719
94.7741 4.3031 3.5719
95.5128 4.3031 3.5719
96.1044 4.2122 3.6628
96.696 4.1206 3.7544
97.2876 4.0291 3.8459
97.8791 3.9375 3.9375
97.814 4.1447 4.1447
97.2297 4.0543 4.2352
96.6453 3.9638 4.3256
96.061 3.8734 4.4161
95.4766 3.7836 4.5059
94.7469 3.7836 4.5059
94.0163 3.7836 4.5059
93.2856 3.7836 4.5059
92.5549 3.7836 4.5059
91.8252 3.7836 4.5059
91.0946 3.7836 4.5059
90.3639 3.7836 4.5059
89.6332 3.7836 4.5059
89.0489 3.8734 4.4161
88.4646 3.9638 4.3256
87.8802 4.0543 4.2352
87.2959 4.1447 4.1447
87.8802 4.2352 4.0543
88.4646 4.3256 3.9638
89.0489 4.4161 3.8734
89.6332 4.5059 3.7836
90.3639 4.5059 3.7836
91.0946 4.5059 3.7836
91.8252 4.5059 3.7836
92.5549 4.5059 3.7836
93.2856 4.5059 3.7836
94.0163 4.5059 3.7836
94.7469 4.5059 3.7836
95.4766 4.5059 3.7836
96.061 4.4161 3.8734
96.6453 4.3256 3.9638
97.2297 4.2352 4.0543
97.814 4.1447 4.1447
97.7488 4.352 4.352
97.1717 4.2626 4.4413
96.5946 4.1733 4.5306
96.0175 4.084 4.6199
95.4404 3.9953 4.7086
94.7197 3.9953 4.7086
93.9981 3.9953 4.7086
93.2765 3.9953 4.7086
92.5549 3.9953 4.7086
91.8342 3.9953 4.7086
91.1126 3.9953 4.7086
90.391 3.9953 4.7086
89.6694 3.9953 4.7086
89.0923 4.084 4.6199
88.5152 4.1733 4.5306
87.9381 4.2626 4.4413
87.361 4.352 4.352
87.9381 4.4413 4.2626
88.5152 4.5306 4.1733
89.0923 4.6199 4.084
89.6694 4.7086 3.9953
90.391 4.7086 3.9953
91.1126 4.7086 3.9953
91.8342 4.7086 3.9953
92.5549 4.7086 3.9953
93.2765 4.7086 3.9953
93.9981 4.7086 3.9953
94.7197 4.7086 3.9953
95.4404 4.7086 3.9953
96.0175 4.6199 4.084
96.5946 4.5306 4.1733
97.1717 4.4413 4.2626
97.7488 4.352 4.352
97.6837 4.5592 4.5592
97.1138 4.471 4.6474
96.544 4.3828 4.7356
95.9741 4.2946 4.8238
95.4042 4.207 4.9114
94.6926 4.207 4.9114
93.98 4.207 4.9114
93.2675 4.207 4.9114
92.5549 4.207 4.9114
91.8433 4.207 4.9114
91.1307 4.207 4.9114
90.4182 4.207 4.9114
89.7056 4.207 4.9114
89.1357 4.2946 4.8238
88.5659 4.3828 4.7356
87.996 4.471 4.6474
87.4262 4.5592 4.5592
87.996 4.6474 4.471
88.5659 4.7356 4.3828
89.1357 4.8238 4.2946
89.7056 4.9114 4.207
90.4182 4.9114 4.207
91.1307 4.9114 4.207
91.8433 4.9114 4.207
92.5549 4.9114 4.207
93.2675 4.9114 4.207
93.98 4.9114 4.207
94.6926 4.9114 4.207
95.4042 4.9114 4.207
95.9741 4.8238 4.2946
96.544 4.7356 4.3828
97.1138 4.6474 4.471
97.6837 4.5592 4.5592
97.6186 4.7664 4.7664
97.0559 4.6794 4.8535
96.4933 4.5923 4.9406
95.9307 4.5052 5.0277
95.368 4.4187 5.1142
94.6654 4.4187 5.1142
93.9619 4.4187 5.1142
93.2584 4.4187 5.1142
92.5549 4.4187 5.1142
91.8523 4.4187 5.1142
91.1488 4.4187 5.1142
90.4453 4.4187 5.1142
89.7418 4.4187 5.1142
89.1792 4.5052 5.0277
88.6165 4.5923 4.9406
88.0539 4.6794 4.8535
87.4913 4.7664 4.7664
88.0539 4.8535 4.6794
88.6165 4.9406 4.5923
89.1792 5.0277 4.5052
89.7418 5.1142 4.4187
90.4453 5.1142 4.4187
91.1488 5.1142 4.4187
91.8523 5.1142 4.4187
92.5549 5.1142 4.4187
93.2584 5.1142 4.4187
93.9619 5.1142 4.4187
94.6654 5.1142 4.4187
95.368 5.1142 4.4187
95.9307 5.0277 4.5052
96.4933 4.9406 4.5923
97.0559 4.8535 4.6794
97.6186 4.7664 4.7664
97.5534 4.9737 4.9737
96.998 4.8877 5.0596
96.4426 4.8017 5.1456
95.8872 4.7158 5.2316
95.3319 4.6304 5.3169
94.6383 4.6304 5.3169
93.9438 4.6304 5.3169
93.2494 4.6304 5.3169
92.5549 4.6304 5.3169
91.8613 4.6304 5.3169
91.1669 4.6304 5.3169
90.4724 4.6304 5.3169
89.778 4.6304 5.3169
89.2226 4.7158 5.2316
88.6672 4.8017 5.1456
88.1118 4.8877 5.0596
87.5564 4.9737 4.9737
88.1118 5.0596 4.8877
88.6672 5.1456 4.8017
89.2226 5.2316 4.7158
89.778 5.3169 4.6304
90.4724 5.3169 4.6304
91.1669 5.3169 4.6304
91.8613 5.3169 4.6304
92.5549 5.3169 4.6304
93.2494 5.3169 4.6304
93.9438 5.3169 4.6304
94.6383 5.3169 4.6304
95.3319 5.3169 4.6304
95.8872 5.2316 4.7158
96.4426 5.1456 4.8017
96.998 5.0596 4.8877
97.5534 4.9737 4.9737
97.4883 5.1809 5.1809
96.9401 5.0961 5.2658
96.392 5.0112 5.3506
95.8438 4.9264 5.4355
95.2957 4.8421 5.5197
94.6111 4.8421 5.5197
93.9257 4.8421 5.5197
93.2403 4.8421 5.5197
92.5549 4.8421 5.5197
91.8704 4.8421 5.5197
91.185 4.8421 5.5197
90.4995 4.8421 5.5197
89.8141 4.8421 5.5197
89.266 4.9264 5.4355
88.7178 5.0112 5.3506
88.1697 5.0961 5.2658
87.6215 5.1809 5.1809
88.1697 5.2658 5.0961
88.7178 5.3506 5.0112
89.266 5.4355 4.9264
89.8141 5.5197 4.8421
90.4995 5.5197 4.8421
91.185 5.5197 4.8421
91.8704 5.5197 4.8421
92.5549 5.5197 4.8421
93.2403 5.5197 4.8421
93.9257 5.5197 4.8421
94.6111 5.5197 4.8421
95.2957 5.5197 4.8421
95.8438 5.4355 4.9264
96.392 5.3506 5.0112
96.9401 5.2658 5.0961
97.4883 5.1809 5.1809
97.4231 5.3882 5.3882
96.8822 5.3044 5.4719
96.3413 5.2207 5.5556
95.8004 5.137 5.6393
95.2595 5.0539 5.7225
94.584 5.0539 5.7225
93.9076 5.0539 5.7225
93.2312 5.0539 5.7225
92.5549 5.0539 5.7225
91.8794 5.0539 5.7225
91.203 5.0539 5.7225
90.5267 5.0539 5.7225
89.8503 5.0539 5.7225
89.3094 5.137 5.6393
88.7685 5.2207 5.5556
88.2276 5.3044 5.4719
87.6867 5.3882 5.3882
88.2276 5.4719 5.3044
88.7685 5.5556 5.2207
89.3094 5.6393 5.137
89.8503 5.7225 5.0539
90.5267 5.7225 5.0539
91.203 5.7225 5.0539
91.8794 5.7225 5.0539
92.5549 5.7225 5.0539
93.2312 5.7225 5.0539
93.9076 5.7225 5.0539
94.584 5.7225 5.0539
95.2595 5.7225 5.0539
[...]
POINT_DATA 4469
SCALARS cp1 float
LOOKUP_TABLE default
0.520116
0.252063
0.0495521
-0.299974
-0.610855
-0.430667
-0.23788
-0.26079
-0.270702
-0.282991
-0.285788
-0.498426
-0.717194
-0.427015
-0.0666095
-0.275917
0.207696
0.619899
0.227171
-0.158239
-0.481006
-0.341449
-0.165433
-0.184531
-0.189123
-0.193127
-0.184854
-0.378323
-0.57745
-0.289067
0.021817
0.188433
0.460364
0.508062
0.246739
0.026083
-0.292544
-0.549095
-0.426482
-0.268668
-0.267055
-0.274104
-0.28937
-0.315619
-0.496473
-0.656988
-0.427096
-0.133862
-0.154016
0.198065
0.448421
0.202018
-0.150905
-0.422032
-0.332702
-0.191355
-0.189056
-0.19149
-0.198779
-0.21387
-0.376242
-0.516828
-0.282077
0.00962871
0.204962
0.462825
0.496276
0.234282
0.023405
-0.311301
-0.590569
-0.43775
-0.260314
-0.265721
-0.273488
-0.287636
-0.306408
-0.50604
-0.700008
-0.446501
-0.119519
-0.175391
0.190453
0.467777
0.200716
-0.173578
-0.463333
-0.343837
-0.18325
-0.187698
-0.191013
-0.197481
-0.205774
-0.386052
-0.557233
-0.300159
0.0163067
0.208703
0.468861
0.489762
0.227059
0.0176472
-0.321628
-0.604979
-0.44405
-0.261064
-0.266337
-0.273944
-0.288084
-0.306687
-0.511748
-0.715418
-0.45923
-0.124219
-0.183125
0.183748
0.465521
0.195176
-0.185514
-0.476881
-0.348488
-0.182946
-0.187747
-0.191211
-0.197949
-0.206451
-0.391881
-0.570929
-0.310301
0.0171845
0.214507
0.476384
0.488812
0.223268
0.012567
-0.330939
-0.616271
-0.449445
-0.262352
-0.267052
-0.274352
-0.288603
-0.307604
-0.51676
-0.727111
-0.470018
-0.129822
-0.189215
0.179053
0.463312
0.190365
-0.195012
-0.486771
-0.352228
-0.183146
-0.187821
-0.191329
-0.198469
-0.207636
-0.396948
-0.581345
-0.318489
0.0162353
0.217468
0.480829
0.488276
0.220323
0.00781387
-0.338767
-0.624917
-0.454041
-0.263866
-0.26771
-0.274699
-0.289077
-0.308796
-0.521167
-0.736223
-0.479024
-0.135494
-0.194369
0.175183
0.460934
0.186056
-0.202412
-0.49392
-0.355236
-0.183576
-0.187825
-0.191375
-0.198929
-0.209023
-0.40133
-0.589332
-0.325002
0.0148244
0.219043
0.48391
0.487799
0.217765
0.00345058
-0.345264
-0.631797
-0.457998
-0.265362
-0.268309
-0.274988
-0.289512
-0.310006
-0.524907
-0.743493
-0.486585
-0.140865
-0.198918
0.171927
0.458591
0.182334
-0.208193
-0.499241
-0.357625
-0.184023
-0.187782
-0.19137
-0.199347
-0.210392
-0.40508
-0.595639
-0.330279
0.0130477
0.219572
0.485715
0.487373
0.21551
-0.000432157
-0.350687
-0.637365
-0.461339
-0.26673
-0.268836
-0.275219
-0.289894
-0.311128
-0.52809
-0.749382
-0.492931
-0.145802
-0.202886
0.169058
0.456199
0.179037
-0.212742
-0.503257
-0.35952
-0.184408
-0.187704
-0.191325
-0.199717
-0.211658
-0.408244
-0.600723
-0.33465
0.0111381
0.219449
0.486699
0.486742
0.2134
-0.00384261
-0.355271
-0.641918
-0.464151
-0.267925
-0.269281
-0.27538
-0.290207
-0.31213
-0.530758
-0.754203
-0.498251
-0.150174
-0.206406
0.166535
0.453979
0.176274
-0.216333
-0.506331
-0.360989
-0.184715
-0.187598
-0.19125
-0.200036
-0.212778
-0.410923
-0.604892
-0.338362
0.00925924
0.218901
0.487107
0.486016
0.211527
-0.00675718
-0.359091
-0.645668
-0.466508
-0.268956
-0.269633
-0.275463
-0.290425
-0.312954
-0.532947
-0.758166
-0.502722
-0.154028
-0.209495
0.164211
0.451901
0.173861
-0.219196
-0.508694
-0.362097
-0.184921
-0.187458
-0.191144
-0.200303
-0.213769
-0.413201
-0.608357
-0.341493
0.00751289
0.218186
0.48716
0.485232
0.209808
-0.00934885
-0.362321
-0.648772
-0.468427
-0.269793
-0.269876
-0.275466
-0.290553
-0.313602
-0.534743
-0.761422
-0.506526
-0.157375
-0.212186
0.162148
0.44999
0.171828
-0.221576
-0.510537
-0.362941
-0.18504
-0.18729
-0.191014
-0.200511
-0.214615
-0.415096
-0.611271
-0.344191
0.00581688
0.217327
0.486936
0.48427
0.208151
-0.0116496
-0.365067
-0.651305
-0.47
-0.270447
-0.270009
-0.275381
-0.290578
-0.314076
-0.536162
-0.764069
-0.509678
-0.160323
-0.214585
0.160286
0.448213
0.169983
-0.223475
-0.511957
-0.363554
-0.185087
-0.187097
-0.19086
-0.200668
-0.21533
-0.416711
-0.613726
-0.346564
0.00419996
0.216336
0.486437
0.483193
0.206588
-0.0135843
-0.367291
-0.653369
-0.471238
-0.27093
-0.270025
-0.275197
-0.290484
-0.314381
-0.537261
-0.766192
-0.512264
-0.16281
-0.216724
0.158561
0.446579
0.168444
-0.225002
-0.513041
-0.364001
-0.185077
-0.186882
-0.190685
-0.20077
-0.21593
-0.418058
-0.61582
-0.348573
0.0027661
0.2153
0.485784
0.482046
0.205157
-0.0152854
-0.369152
-0.655044
-0.47221
-0.271236
-0.269917
-0.274907
-0.290271
-0.314523
-0.53804
-0.767883
-0.514398
-0.164936
-0.21858
0.156921
0.445052
0.167045
-0.226279
-0.513919
-0.364309
-0.185024
-0.186645
-0.190487
-0.20082
-0.216417
-0.419216
-0.617632
-0.350353
0.00140485
0.214258
0.484985
0.480996
0.203893
-0.0167696
-0.370722
-0.65637
-0.472891
-0.271368
-0.269681
-0.274502
-0.28993
-0.314477
-0.538557
-0.769186
-0.516173
-0.166722
-0.220117
0.155483
0.44365
0.165848
-0.2274
-0.514629
-0.364528
-0.184926
-0.186392
-0.190265
-0.200823
-0.216801
-0.420163
-0.61921
-0.351969
0.000132365
0.213279
0.484229
0.479936
0.202738
-0.0180254
-0.372048
-0.657369
-0.473338
-0.271331
-0.269306
-0.27397
-0.28945
-0.314262
-0.538821
-0.770125
-0.517584
-0.16825
-0.221372
0.15426
0.442331
0.164695
-0.228377
-0.515207
-0.364683
-0.184808
-0.186126
-0.190021
-0.200774
-0.217096
-0.420964
-0.620579
-0.353463
-0.00102648
0.212325
0.48345
0.478982
0.201695
-0.0191733
-0.37305
-0.658089
-0.473597
-0.271121
-0.268788
-0.273302
-0.288825
-0.313861
-0.53883
-0.77073
-0.518671
-0.16954
-0.22241
0.153148
0.441022
0.163573
-0.22928
-0.515698
-0.364794
-0.184663
-0.185847
-0.189753
-0.200679
-0.217302
-0.421671
-0.621785
-0.354752
-0.00218021
0.211411
0.482768
0.477941
0.200712
-0.020113
-0.373807
-0.658556
-0.473636
-0.27074
-0.268114
-0.272486
-0.288042
-0.313276
-0.538639
-0.77103
-0.519379
-0.170547
-0.223282
0.152126
0.439785
0.162632
-0.229995
-0.51613
-0.364908
-0.184504
-0.185553
-0.189456
-0.200528
-0.217431
-0.422256
-0.622856
-0.355909
-0.00321979
0.210494
0.481966
0.476844
0.199763
-0.0208812
-0.374306
-0.658796
-0.473473
-0.27018
-0.267276
-0.271505
-0.287085
-0.312513
-0.538196
-0.771055
-0.519809
-0.171303
-0.223953
0.151018
0.43841
0.161661
-0.230693
-0.516583
-0.365006
-0.184349
-0.185242
-0.189127
-0.200328
-0.217478
-0.422745
-0.623814
-0.356924
-0.00418337
0.209553
0.481092
0.475801
0.198927
-0.0214832
-0.374662
-0.658787
-0.473051
-0.269435
-0.266258
-0.270346
-0.285932
-0.311527
-0.537467
-0.77078
-0.519997
-0.1718
-0.224347
0.150141
0.43708
0.160694
-0.231475
-0.517028
-0.365072
-0.184175
-0.184907
-0.188758
-0.200065
-0.217446
-0.42309
-0.624662
-0.357918
-0.00507739
0.208668
0.480277
0.474757
0.198162
-0.0220528
-0.374807
-0.658527
-0.472455
-0.268495
-0.265045
-0.268988
-0.284576
-0.310322
-0.536521
-0.770191
-0.519896
-0.172128
-0.224535
0.149337
0.435674
0.15956
-0.232275
-0.517467
-0.365179
-0.183995
-0.184548
-0.188345
-0.199734
-0.217334
-0.423383
-0.625407
-0.358831
-0.00602375
0.207801
0.479464
0.473742
0.197467
-0.0224823
-0.374802
-0.658041
-0.471622
-0.267322
-0.263616
-0.26741
-0.28299
-0.308872
-0.535312
-0.769321
-0.519513
-0.172198
-0.224473
0.148465
0.434049
0.158425
-0.233116
-0.517977
-0.365319
-0.183807
-0.184156
-0.187876
-0.199332
-0.217113
-0.423565
-0.626063
-0.359718
-0.0069303
0.206951
0.478688
0.472639
0.19677
-0.0227459
-0.374647
-0.657323
-0.470503
-0.265939
-0.261947
-0.265585
-0.281142
-0.307158
-0.53378
-0.768156
-0.518969
-0.172061
-0.224162
0.147768
0.432396
0.15716
-0.234173
-0.518565
-0.365453
-0.183607
-0.183716
-0.187335
-0.198837
-0.216811
-0.4236
-0.626637
-0.360601
-0.00778664
0.206047
0.477836
0.471519
0.196171
-0.0229644
-0.374363
-0.656362
-0.469117
-0.264304
-0.260015
-0.263484
-0.279011
-0.305163
-0.531857
-0.76665
-0.51816
-0.171667
-0.223574
0.146964
0.430478
0.155768
-0.235362
-0.519233
-0.365549
-0.183397
-0.183218
-0.186707
-0.198238
-0.216396
-0.423522
-0.627152
-0.361519
-0.00870273
0.20519
0.476965
0.470281
0.195549
-0.0231233
-0.37392
-0.655124
-0.46743
-0.262378
-0.25778
-0.261071
-0.276552
-0.302805
-0.529602
-0.764766
-0.51705
-0.171098
-0.222748
0.146177
0.428288
0.154089
-0.236713
-0.519986
-0.365692
-0.183138
-0.182644
-0.185972
-0.197503
-0.21584
-0.423305
-0.627586
-0.362443
-0.00966717
0.204248
0.475982
0.468967
0.194871
-0.0231816
-0.373155
-0.653534
-0.465462
-0.260133
-0.255212
-0.258308
-0.273723
-0.300068
-0.526959
-0.762431
-0.515539
-0.170292
-0.221661
0.145399
0.425741
0.152198
-0.238178
-0.520806
-0.365871
-0.18283
-0.181969
-0.185103
-0.196616
-0.215119
-0.422974
-0.627878
-0.363239
-0.0106735
0.203183
0.474972
0.467433
0.19419
-0.0231591
-0.372158
-0.651632
-0.463109
-0.25752
-0.252257
-0.255145
-0.270464
-0.296881
-0.523816
-0.759649
-0.513659
-0.169209
-0.220237
0.144604
0.42281
0.149992
-0.239857
-0.521756
-0.366038
-0.182443
-0.181164
-0.18407
-0.195531
-0.21419
-0.422438
-0.628092
-0.364036
-0.0117619
0.202043
0.473776
0.465716
0.193433
-0.023005
-0.37097
-0.649387
-0.460355
-0.25448
-0.248869
-0.251531
-0.266727
-0.293194
-0.520147
-0.756377
-0.511375
-0.167765
-0.218491
0.14357
0.419307
0.147497
-0.241808
-0.52289
-0.366203
-0.181955
-0.180197
-0.182837
-0.19421
-0.213002
-0.421697
-0.628226
-0.364892
-0.0128893
0.200754
0.472424
0.463742
0.192572
-0.0227916
-0.369397
-0.646654
-0.457081
-0.250946
-0.244987
-0.247407
-0.262433
-0.288883
-0.515851
-0.752466
-0.508553
-0.16605
-0.216391
0.142451
0.415214
0.144469
-0.244024
-0.524147
-0.366339
-0.1813
-0.179025
-0.181363
-0.192611
-0.211495
-0.420641
-0.628167
-0.365643
-0.0141561
0.199257
0.470853
0.461355
0.191473
-0.022563
-0.367457
-0.643305
-0.45323
-0.246831
-0.240538
-0.242704
-0.25749
-0.283848
-0.510771
-0.74775
-0.505178
-0.16403
-0.2139
0.141212
0.410226
0.140836
-0.246661
-0.525497
-0.36638
-0.180428
-0.177593
-0.179603
-0.190663
-0.209583
-0.419217
-0.627809
-0.366352
-0.0156529
0.197405
0.468945
0.458523
0.190115
-0.0223872
-0.365189
-0.639226
-0.448572
-0.242034
-0.235453
-0.237355
-0.251821
-0.27795
-0.50464
-0.742063
-0.501139
-0.161679
-0.210969
0.13966
0.404178
0.136332
-0.249725
-0.526899
-0.366153
-0.179253
-0.175849
-0.177506
-0.188309
-0.207158
-0.417197
-0.627082
-0.367142
-0.0175226
0.19516
0.466706
0.454984
0.188403
-0.0222296
-0.362372
-0.634174
-0.442928
-0.236427
-0.22964
-0.231285
-0.245313
-0.271022
-0.497275
-0.735135
-0.496317
-0.158927
-0.207483
0.137794
0.39679
0.13079
-0.25336
-0.528243
-0.365568
-0.177683
-0.173732
-0.175024
-0.185468
-0.204091
-0.414406
-0.625783
-0.367845
-0.0197972
0.192376
0.463871
0.450567
0.186042
-0.0222003
-0.358872
-0.627808
-0.43607
-0.229853
-0.223017
-0.224418
-0.237847
-0.262865
-0.488301
-0.72653
-0.49044
-0.1558
-0.203457
0.135354
0.387409
0.123784
-0.25761
-0.529337
-0.364402
-0.1756
-0.17118
-0.172123
-0.182079
-0.200212
-0.410589
-0.623577
-0.368377
-0.0226527
0.18872
0.460329
0.444587
0.182683
-0.0225536
-0.354487
-0.61959
-0.427521
-0.22214
-0.215504
-0.216702
-0.229331
-0.253174
-0.477149
-0.715623
-0.483174
-0.152359
-0.198918
0.132178
0.375414
0.114664
-0.262499
-0.52978
-0.362252
-0.172814
-0.168154
-0.168783
-0.178072
-0.195327
-0.405221
-0.619938
-0.368641
-0.0264983
0.183785
0.455465
0.436292
0.177702
-0.0233342
-0.348687
-0.608696
-0.416714
-0.213083
-0.207045
-0.20809
-0.219666
-0.241663
-0.463118
-0.701494
-0.473985
-0.148405
-0.193849
0.127404
0.359343
0.102786
-0.267962
-0.528948
-0.358618
-0.169187
-0.164657
-0.165033
-0.17344
-0.189213
-0.397672
-0.614004
-0.368177
-0.0315367
0.176855
0.448605
0.424033
0.169972
-0.0249538
-0.340845
-0.593672
-0.4027
-0.202517
-0.197653
-0.198585
-0.208826
-0.228038
-0.445013
-0.682458
-0.462018
-0.144091
-0.188299
0.120129
0.337003
0.0866765
-0.273829
-0.525598
-0.352632
-0.164644
-0.160807
-0.16099
-0.168279
-0.181697
-0.386879
-0.604135
-0.366181
-0.0382648
0.166697
0.438201
0.406164
0.157651
-0.0280867
-0.329481
-0.571276
-0.383934
-0.190483
-0.187342
-0.188168
-0.196832
-0.212206
-0.421003
-0.655086
-0.445616
-0.139809
-0.182281
0.109215
0.304542
0.0644509
-0.278864
-0.516613
-0.342611
-0.159212
-0.156723
-0.156736
-0.16271
-0.172892
-0.371384
-0.586939
-0.360922
-0.0478364
0.150896
0.421672
0.385274
0.137766
-0.0322265
-0.310361
-0.53296
-0.356351
-0.177555
-0.176131
-0.176595
-0.183728
-0.194822
-0.388054
-0.611534
-0.421617
-0.137971
-0.175534
0.0946496
0.253704
0.0338663
-0.27929
-0.493868
-0.324681
-0.153639
-0.152591
-0.15216
-0.15685
-0.163529
-0.348588
-0.554582
-0.348245
-0.0620562
0.124886
0.393086
0.267393
0.0498698
-0.10058
-0.317942
-0.47555
-0.323449
-0.176934
-0.171699
-0.170131
-0.174845
-0.184085
-0.338074
-0.518799
-0.377393
-0.155609
-0.176545
0.0309765
0.120563
-0.0690544
-0.311553
-0.459902
-0.308978
-0.167764
-0.163491
-0.161642
-0.164706
-0.170512
-0.31656
-0.475307
-0.312377
-0.0873958
0.076016
0.314999
0.0815842
-0.106602
-0.210873
-0.3833
-0.505342
-0.293178
-0.144974
-0.166308
-0.164545
-0.162612
-0.136053
-0.275582
-0.489858
-0.349052
-0.118405
-0.252888
-0.0672366
0.0255045
-0.221168
-0.414346
-0.51697
-0.30023
-0.15756
-0.18052
-0.179646
-0.177582
-0.149912
-0.283253
-0.46347
-0.291114
-0.108995
-0.00712414
0.210828
0.529181
0.28222
0.0930331
-0.24626
-0.553131
-0.38346
-0.192069
-0.206622
-0.20899
-0.213799
-0.208529
-0.415414
-0.642227
-0.372343
-0.01722
-0.261891
0.196994
0.662991
0.271793
-0.107769
-0.412566
-0.265418
-0.0947536
-0.121543
-0.133229
-0.144365
-0.1439
-0.336293
-0.525073
-0.238772
0.0636967
0.222253
0.481399
0.518905
0.274164
0.0656424
-0.242717
-0.494736
-0.377973
-0.220937
-0.212794
-0.212891
-0.221173
-0.240675
-0.41699
-0.583289
-0.369439
-0.0860961
-0.133429
0.19311
0.486667
0.249995
-0.0960005
-0.353574
-0.259308
-0.12238
-0.126619
-0.135734
-0.149616
-0.170825
-0.33249
-0.467081
-0.235278
0.0481637
0.234057
0.478739
0.508731
0.260527
0.0603926
-0.26348
-0.536723
-0.389265
-0.212884
-0.211844
-0.212922
-0.220395
-0.232895
-0.427267
-0.624788
-0.386595
-0.0684157
-0.150643
0.190184
0.511008
0.252447
-0.115769
-0.392738
-0.270575
-0.115163
-0.125793
-0.135544
-0.148377
-0.162717
-0.34202
-0.507728
-0.255103
0.0523608
0.234897
0.481082
0.501142
0.251536
0.0523638
-0.275682
-0.551792
-0.395368
-0.213723
-0.212968
-0.214227
-0.22205
-0.234963
-0.434964
-0.640675
-0.397933
-0.0715431
-0.155414
0.187879
0.511405
0.249566
-0.125649
-0.406065
-0.276592
-0.116113
-0.126607
-0.136204
-0.149001
-0.163169
-0.347341
-0.521735
-0.266798
0.0512355
0.238811
0.487337
0.498028
0.245719
0.0453037
-0.286289
-0.563417
-0.400744
-0.215252
-0.214291
-0.215607
-0.223925
-0.237694
-0.442039
-0.653527
-0.40823
-0.0758566
-0.158922
0.186833
0.511407
0.246805
-0.134042
-0.416507
-0.28183
-0.117627
-0.1276
-0.136903
-0.149775
-0.16427
-0.352082
-0.532179
-0.275987
0.0485433
0.240113
0.490588
0.495913
0.2411
0.0388843
-0.29527
-0.572465
-0.405476
-0.217122
-0.215652
-0.217016
-0.22584
-0.240733
-0.448526
-0.664037
-0.41717
-0.0805335
-0.161963
0.185823
0.51068
0.243968
-0.140889
-0.424551
-0.286412
-0.119425
-0.128621
-0.137626
-0.150583
-0.165683
-0.35631
-0.54031
-0.283426
0.0455575
0.240122
0.492307
0.493994
0.237076
0.033091
-0.302781
-0.579753
-0.409652
-0.219069
-0.217035
-0.21844
-0.227772
-0.243809
-0.454381
-0.672907
-0.42503
-0.0852574
-0.164819
0.184954
0.509539
0.241196
-0.146583
-0.431041
-0.29045
-0.121284
-0.12966
-0.138372
-0.151432
-0.167172
-0.359993
-0.546787
-0.289514
0.0424759
0.239331
0.492941
0.492196
0.233504
0.0279646
-0.30911
-0.585752
-0.413307
-0.22098
-0.218414
-0.219853
-0.229683
-0.246799
-0.459687
-0.680528
-0.431959
-0.0898534
-0.167445
0.184072
0.507982
0.238434
-0.151403
-0.436408
-0.294035
-0.123105
-0.130702
-0.139129
-0.1523
-0.168647
-0.363181
-0.55207
-0.294598
0.0394629
0.238061
0.492839
0.490334
0.230219
0.0234493
-0.314529
-0.590771
-0.416516
-0.222789
-0.219764
-0.221235
-0.231544
-0.249652
-0.464454
-0.687154
-0.438075
-0.09415
-0.169919
0.183177
0.506259
0.235861
-0.155534
-0.440953
-0.297207
-0.124854
-0.131747
-0.139898
-0.153171
-0.17005
-0.365971
-0.556474
-0.298946
0.0366344
0.236512
0.492258
0.488462
0.22726
0.0195266
-0.319124
-0.59501
-0.419337
-0.224492
-0.221064
-0.222576
-0.233328
-0.252302
-0.468707
-0.692971
-0.443503
-0.0981453
-0.172223
0.182217
0.504435
0.233376
-0.159144
-0.444874
-0.300013
-0.126495
-0.132785
-0.140676
-0.154034
-0.171385
-0.368429
-0.560202
-0.302652
0.0340653
0.234916
0.491418
0.486585
0.224535
0.0160133
-0.323087
-0.598629
-0.421783
-0.226059
-0.222295
-0.223855
-0.235016
-0.254747
-0.472534
-0.698102
-0.448376
-0.101809
-0.174352
0.181276
0.502572
0.231061
-0.162425
-0.448329
-0.302544
-0.128031
-0.133797
-0.141453
-0.154877
-0.172628
-0.370562
-0.563399
-0.305877
0.0316487
0.233279
0.490388
0.484629
0.221954
0.0128534
-0.326547
-0.601709
-0.423937
-0.227491
-0.223447
-0.225055
-0.236586
-0.256981
-0.475936
-0.702621
-0.452678
-0.105206
-0.176364
0.180321
0.500662
0.228767
-0.165341
-0.451392
-0.30482
-0.129473
-0.13478
-0.142221
-0.155702
-0.173786
-0.372469
-0.566166
-0.308748
0.029383
0.231593
0.489161
0.482636
0.219524
0.0100989
-0.329475
-0.604352
-0.425808
-0.228792
-0.224505
-0.226163
-0.238022
-0.259004
-0.478966
-0.706609
-0.45648
-0.108244
-0.178246
0.179338
0.498755
0.226654
-0.167967
-0.454128
-0.306896
-0.130833
-0.135732
-0.142973
-0.156493
-0.174869
-0.374159
-0.568601
-0.311233
0.0273534
0.229917
0.487831
0.480616
0.217266
0.00761447
-0.332033
-0.60664
-0.427459
-0.229951
-0.225459
-0.227164
-0.239318
-0.260818
-0.48162
-0.710136
-0.459863
-0.111005
-0.179974
0.178309
0.496857
0.224586
-0.170399
-0.45665
-0.308792
-0.132116
-0.136647
-0.143705
-0.157251
-0.175873
-0.375702
-0.570778
-0.313472
0.0254483
0.228295
0.486425
0.478717
0.21521
0.00537775
-0.334297
-0.608608
-0.42886
-0.230968
-0.226297
-0.228043
-0.240454
-0.262395
-0.483957
-0.713243
-0.462897
-0.113481
-0.181489
0.177339
0.494991
0.222648
-0.172705
-0.458994
-0.310562
-0.13331
-0.137517
-0.144411
-0.157976
-0.176803
-0.377071
-0.572743
-0.315537
0.0236678
0.226776
0.485095
0.47685
0.213289
0.00337771
-0.33633
-0.610284
-0.430066
-0.231843
-0.22701
-0.228789
-0.241423
-0.263757
-0.485982
-0.715943
-0.465563
-0.115732
-0.182794
0.176486
0.493137
0.220702
-0.174882
-0.461175
-0.31222
-0.134444
-0.138349
-0.145085
-0.158657
-0.177666
-0.378322
-0.57452
-0.317477
0.0220215
0.225317
0.48378
0.475114
0.211489
0.00148803
-0.338051
-0.61171
-0.431117
-0.232569
-0.22759
-0.229389
-0.242222
-0.26489
-0.487686
-0.718253
-0.467901
-0.117775
-0.183941
0.175676
0.491258
0.218759
-0.176992
-0.463226
-0.313775
-0.135514
-0.139143
-0.145721
-0.159298
-0.17846
-0.379509
-0.576156
-0.319213
0.0203994
0.223921
0.482595
0.473313
0.209757
-0.00019337
-0.339538
-0.612914
-0.431981
-0.233146
-0.228019
-0.229826
-0.24283
-0.265792
-0.489127
-0.720201
-0.469842
-0.119544
-0.184951
0.174867
0.489395
0.216978
-0.178894
-0.465169
-0.315279
-0.136528
-0.139891
-0.146314
-0.159886
-0.179193
-0.380601
-0.577683
-0.320821
0.0189044
0.222544
0.48133
0.47146
0.208063
-0.00170544
-0.340797
-0.613936
-0.432677
-0.233563
-0.22829
-0.230088
-0.243233
-0.266467
-0.490252
-0.721805
-0.471466
-0.121073
-0.185803
0.173943
0.48739
0.215165
-0.180752
-0.467074
-0.316706
-0.137494
-0.140586
-0.146856
-0.160423
-0.179856
-0.381621
-0.579132
-0.322305
0.0174969
0.221166
0.480015
0.469668
0.206487
-0.00305942
-0.341935
-0.614741
-0.433143
-0.233811
-0.228382
-0.230156
-0.243408
-0.266868
-0.491029
-0.723055
-0.472815
-0.122333
-0.186385
0.173196
0.485381
0.213342
-0.182665
-0.46892
-0.318041
-0.138391
-0.141221
-0.147337
-0.160892
-0.18045
-0.38252
-0.580491
-0.323777
0.0161649
0.219858
0.478775
0.467878
0.204971
-0.00439939
-0.342888
-0.615321
-0.433461
-0.233883
-0.228282
-0.230012
-0.243347
-0.267004
-0.491534
-0.72394
-0.473839
-0.123403
-0.186771
0.172498
0.483307
0.21138
-0.184557
-0.470703
-0.319356
-0.139231
-0.141793
-0.147751
-0.161289
-0.180974
-0.383384
-0.581766
-0.325176
0.0147811
0.218573
0.477549
0.466106
0.203503
-0.00562466
-0.343723
-0.61572
-0.433577
-0.233743
-0.227972
-0.229633
-0.243026
-0.26685
-0.491715
-0.724469
-0.474523
-0.124194
-0.186921
0.171714
0.481051
0.209447
-0.186447
-0.472484
-0.320636
-0.140004
-0.142288
-0.148085
-0.161604
-0.181393
-0.384156
-0.582983
-0.326575
0.0134301
0.21731
0.476374
0.464246
0.202021
-0.00670949