TITLE = "AGPS 3D Finite Element Data"
VARIABLES = "x", "y", "z", "cp1"
ZONE T="MIXED", N=260, E=228, DATAPACKING=BLOCK, ZONETYPE=FEQUADRILATERAL
98.27 97.0 95.73 92.555 89.38 88.11 86.84 88.11 89.38 92.555 95.73 97.0 98.27 97.9878 96.7475 95.5072 92.4807 89.4543 88.214 86.9737 88.214 89.4543 92.4807 95.5072 96.7475 97.9878 97.7055 96.4949 95.2844 92.4064 89.5285 88.3179 87.1074 88.3179 89.5285 92.4064 95.2844 96.4949 97.7055 97.4233 96.2424 95.0615 92.3322 89.6028 88.4219 87.2411 88.4219 89.6028 92.3322 95.0615 96.2424 97.4233 97.141 95.9899 94.8387 92.2579 89.677 88.5259 87.3747 88.5259 89.677 92.2579 94.8387 95.9899 97.141 96.8588 95.7374 94.6159 92.1836 89.7513 88.6299 87.5084 88.6299 89.7513 92.1836 94.6159 95.7374 96.8588 96.5766 95.4848 94.3931 92.1093 89.8256 88.7338 87.6421 88.7338 89.8256 92.1093 94.3931 95.4848 96.5766 96.2943 95.2323 94.1703 92.035 89.8998 88.8378 87.7758 88.8378 89.8998 92.035 94.1703 95.2323 96.2943 96.0121 94.9798 93.9475 91.9608 89.9741 88.9418 87.9095 88.9418 89.9741 91.9608 93.9475 94.9798 96.0121 95.7298 94.7272 93.7246 91.8865 90.0484 89.0458 88.0432 89.0458 90.0484 91.8865 93.7246 94.7272 95.7298 95.4476 94.4747 93.5018 91.8122 90.1226 89.1497 88.1768 89.1497 90.1226 91.8122 93.5018 94.4747 95.4476 95.1654 94.2222 93.279 91.7379 90.1969 89.2537 88.3105 89.2537 90.1969 91.7379 93.279 94.2222 95.1654 94.8831 93.9696 93.0562 91.6637 90.2711 89.3577 88.4442 89.3577 90.2711 91.6637 93.0562 93.9696 94.8831 94.6009 93.7171 92.8334 91.5894 90.3454 89.4616 88.5779 89.4616 90.3454 91.5894 92.8334 93.7171 94.6009 94.3186 93.4646 92.6105 91.5151 90.4197 89.5656 88.7116 89.5656 90.4197 91.5151 92.6105 93.4646 94.3186 94.0364 93.2121 92.3877 91.4408 90.4939 89.6696 88.8453 89.6696 90.4939 91.4408 92.3877 93.2121 94.0364 93.7542 92.9595 92.1649 91.3665 90.5682 89.7736 88.979 89.7736 90.5682 91.3665 92.1649 92.9595 93.7542 93.4719 92.707 91.9421 91.2923 90.6424 89.8775 89.1126 89.8775 90.6424 91.2923 91.9421 92.707 93.4719 93.1897 92.4545 91.7193 91.218 90.7167 89.9815 89.2463 89.9815 90.7167 91.218 91.7193 92.4545 93.1897 92.9074 92.2019 91.4965 91.1437 90.791 90.0855 89.38 90.0855 90.791 91.1437 91.4965 92.2019 92.9074
2.6941 2.4975 2.3016 2.3016 2.3016 2.4975 2.6941 2.8907 3.0865 3.0865 3.0865 2.8907 2.6941 3.1195 2.9275 2.7362 2.7362 2.7362 2.9275 3.1195 3.3114 3.5027 3.5027 3.5027 3.3114 3.1195 3.5448 3.3575 3.1708 3.1708 3.1708 3.3575 3.5448 3.7322 3.9189 3.9189 3.9189 3.7322 3.5448 3.9702 3.7874 3.6053 3.6053 3.6053 3.7874 3.9702 4.153 4.3351 4.3351 4.3351 4.153 3.9702 4.3956 4.2174 4.0399 4.0399 4.0399 4.2174 4.3956 4.5738 4.7513 4.7513 4.7513 4.5738 4.3956 4.821 4.6474 4.4744 4.4744 4.4744 4.6474 4.821 4.9946 5.1675 5.1675 5.1675 4.9946 4.821 5.2464 5.0774 4.909 4.909 4.909 5.0774 5.2464 5.4153 5.5837 5.5837 5.5837 5.4153 5.2464 5.6717 5.5074 5.3436 5.3436 5.3436 5.5074 5.6717 5.8361 5.9999 5.9999 5.9999 5.8361 5.6717 6.0971 5.9373 5.7781 5.7781 5.7781 5.9373 6.0971 6.2569 6.4161 6.4161 6.4161 6.2569 6.0971 6.5225 6.3673 6.2127 6.2127 6.2127 6.3673 6.5225 6.6777 6.8323 6.8323 6.8323 6.6777 6.5225 6.9479 6.7973 6.6472 6.6472 6.6472 6.7973 6.9479 7.0985 7.2485 7.2485 7.2485 7.0985 6.9479 7.3733 7.2273 7.0818 7.0818 7.0818 7.2273 7.3733 7.5193 7.6647 7.6647 7.6647 7.5193 7.3733 7.7986 7.6573 7.5164 7.5164 7.5164 7.6573 7.7986 7.94 8.0809 8.0809 8.0809 7.94 7.7986 8.224 8.0872 7.9509 7.9509 7.9509 8.0872 8.224 8.3608 8.4971 8.4971 8.4971 8.3608 8.224 8.6494 8.5172 8.3855 8.3855 8.3855 8.5172 8.6494 8.7816 8.9133 8.9133 8.9133 8.7816 8.6494 9.0748 8.9472 8.8201 8.8201 8.8201 8.9472 9.0748 9.2024 9.3295 9.3295 9.3295 9.2024 9.0748 9.5002 9.3772 9.2546 9.2546 9.2546 9.3772 9.5002 9.6232 9.7457 9.7457 9.7457 9.6232 9.5002 9.9255 9.8072 9.6892 9.6892 9.6892 9.8072 9.9255 10.0439 10.1619 10.1619 10.1619 10.0439 9.9255 10.3509 10.2371 10.1237 10.1237 10.1237 10.2371 10.3509 10.4647 10.5781 10.5781 10.5781 10.4647 10.3509 10.7763 10.6671 10.5583 10.5583 10.5583 10.6671 10.7763 10.8855 10.9943 10.9943 10.9943 10.8855 10.7763
2.6941 2.8907 3.0865 3.0865 3.0865 2.8907 2.6941 2.4975 2.3016 2.3016 2.3016 2.4975 2.6941 3.1195 3.3114 3.5027 3.5027 3.5027 3.3114 3.1195 2.9275 2.7362 2.7362 2.7362 2.9275 3.1195 3.5448 3.7322 3.9189 3.9189 3.9189 3.7322 3.5448 3.3575 3.1708 3.1708 3.1708 3.3575 3.5448 3.9702 4.153 4.3351 4.3351 4.3351 4.153 3.9702 3.7874 3.6053 3.6053 3.6053 3.7874 3.9702 4.3956 4.5738 4.7513 4.7513 4.7513 4.5738 4.3956 4.2174 4.0399 4.0399 4.0399 4.2174 4.3956 4.821 4.9946 5.1675 5.1675 5.1675 4.9946 4.821 4.6474 4.4744 4.4744 4.4744 4.6474 4.821 5.2464 5.4153 5.5837 5.5837 5.5837 5.4153 5.2464 5.0774 4.909 4.909 4.909 5.0774 5.2464 5.6717 5.8361 5.9999 5.9999 5.9999 5.8361 5.6717 5.5074 5.3436 5.3436 5.3436 5.5074 5.6717 6.0971 6.2569 6.4161 6.4161 6.4161 6.2569 6.0971 5.9373 5.7781 5.7781 5.7781 5.9373 6.0971 6.5225 6.6777 6.8323 6.8323 6.8323 6.6777 6.5225 6.3673 6.2127 6.2127 6.2127 6.3673 6.5225 6.9479 7.0985 7.2485 7.2485 7.2485 7.0985 6.9479 6.7973 6.6472 6.6472 6.6472 6.7973 6.9479 7.3733 7.5193 7.6647 7.6647 7.6647 7.5193 7.3733 7.2273 7.0818 7.0818 7.0818 7.2273 7.3733 7.7986 7.94 8.0809 8.0809 8.0809 7.94 7.7986 7.6573 7.5164 7.5164 7.5164 7.6573 7.7986 8.224 8.3608 8.4971 8.4971 8.4971 8.3608 8.224 8.0872 7.9509 7.9509 7.9509 8.0872 8.224 8.6494 8.7816 8.9133 8.9133 8.9133 8.7816 8.6494 8.5172 8.3855 8.3855 8.3855 8.5172 8.6494 9.0748 9.2024 9.3295 9.3295 9.3295 9.2024 9.0748 8.9472 8.8201 8.8201 8.8201 8.9472 9.0748 9.5002 9.6232 9.7457 9.7457 9.7457 9.6232 9.5002 9.3772 9.2546 9.2546 9.2546 9.3772 9.5002 9.9255 10.0439 10.1619 10.1619 10.1619 10.0439 9.9255 9.8072 9.6892 9.6892 9.6892 9.8072 9.9255 10.3509 10.4647 10.5781 10.5781 10.5781 10.4647 10.3509 10.2371 10.1237 10.1237 10.1237 10.2371 10.3509 10.7763 10.8855 10.9943 10.9943 10.9943 10.8855 10.7763 10.6671 10.5583 10.5583 10.5583 10.6671 10.7763
0.386533 -0.183565 -0.443421 -0.413821 -0.313874 -0.287246 0.309741 0.219543 -0.187339 -0.379081 -0.459568 -0.203431 0.40981 0.359231 -0.154702 -0.387021 -0.398342 -0.304691 -0.1951 0.287188 0.141437 -0.136762 -0.34759 -0.392856 -0.169975 0.367716 0.337518 -0.206892 -0.435589 -0.415869 -0.326688 -0.23034 0.28212 0.127541 -0.169705 -0.367975 -0.440594 -0.223757 0.340151 0.318299 -0.232734 -0.457458 -0.423899 -0.336827 -0.240397 0.280714 0.120699 -0.178145 -0.375168 -0.46077 -0.246486 0.326225 0.300427 -0.255045 -0.477783 -0.432424 -0.343573 -0.245031 0.281235 0.117947 -0.183522 -0.383082 -0.480883 -0.267741 0.311197 0.282598 -0.276361 -0.498602 -0.441774 -0.346914 -0.244015 0.285362 0.119647 -0.186252 -0.392225 -0.502124 -0.288804 0.295636 0.263338 -0.298769 -0.521412 -0.452176 -0.347059 -0.237765 0.292895 0.125432 -0.186715 -0.402911 -0.525888 -0.311507 0.278477 0.241267 -0.324177 -0.547881 -0.464077 -0.343727 -0.225882 0.304124 0.13555 -0.184768 -0.415696 -0.55388 -0.33765 0.258605 0.214753 -0.354863 -0.580042 -0.478219 -0.33626 -0.207205 0.319865 0.150982 -0.179922 -0.431442 -0.588189 -0.36941 0.234738 0.181044 -0.393959 -0.620739 -0.495727 -0.323632 -0.180063 0.340951 0.173165 -0.17126 -0.45136 -0.631748 -0.409882 0.204377 0.136493 -0.446165 -0.674421 -0.51868 -0.304469 -0.141771 0.369241 0.204464 -0.157491 -0.477572 -0.689125 -0.463713 0.164226 0.0753998 -0.519345 -0.748704 -0.551111 -0.277097 -0.0884 0.407567 0.248377 -0.136985 -0.514032 -0.767974 -0.538549 0.109185 -0.0110376 -0.62762 -0.857814 -0.601594 -0.240028 -0.0140851 0.460867 0.310326 -0.107946 -0.568894 -0.882253 -0.64789 0.0312932 -0.132008 -0.797563 -1.02952 -0.688539 -0.193963 0.0903775 0.540079 0.399006 -0.0700775 -0.659545 -1.05872 -0.816569 -0.0778063 -0.276115 -1.09212 -1.3324 -0.859878 -0.150329 0.239699 0.673923 0.52874 -0.0320405 -0.832029 -1.36193 -1.10158 -0.210257 -0.584605 -1.73443 -1.99184 -1.26829 -0.164046 0.459763 0.950656 0.726149 -0.036613 -1.22496 -1.98081 -1.68322 -0.460557 4.40202 -0.978193 -0.583606 0.285453 1.42428 1.8302 3.58223 2.04618 1.54902 0.262854 -0.840537 -1.07964 3.84356 161.462 42.9842 70.2968 4.32254 -0.435137 3.3142 25.5005 3.45385 -0.37496 5.92955 22.3422 14.1604 97.959 -932.427 -478.563 -94.2315 -93.3208 -76.2656 -50.1765 0.0177857 -47.8573 -75.2801 -91.6941 -145.753 -262.189 -282.108 -2931.75 -1454.55 -377.647 -254.761 -206.985 -156.051 -77.0879 -147.815 -204.597 -252.698 -480.519 -820.037 -1057.06
1 14 15 2
2 15 16 3
3 16 17 4
4 17 18 5
5 18 19 6
6 19 20 7
7 20 21 8
8 21 22 9
9 22 23 10
10 23 24 11
11 24 25 12
12 25 26 13
14 27 28 15
15 28 29 16
16 29 30 17
17 30 31 18
18 31 32 19
19 32 33 20
20 33 34 21
21 34 35 22
22 35 36 23
23 36 37 24
24 37 38 25
25 38 39 26
27 40 41 28
28 41 42 29
29 42 43 30
30 43 44 31
31 44 45 32
32 45 46 33
33 46 47 34
34 47 48 35
35 48 49 36
36 49 50 37
37 50 51 38
38 51 52 39
40 53 54 41
41 54 55 42
42 55 56 43
43 56 57 44
44 57 58 45
45 58 59 46
46 59 60 47
47 60 61 48
48 61 62 49
49 62 63 50
50 63 64 51
51 64 65 52
53 66 67 54
54 67 68 55
55 68 69 56
56 69 70 57
57 70 71 58
58 71 72 59
59 72 73 60
60 73 74 61
61 74 75 62
62 75 76 63
63 76 77 64
64 77 78 65
66 79 80 67
67 80 81 68
68 81 82 69
69 82 83 70
70 83 84 71
71 84 85 72
72 85 86 73
73 86 87 74
74 87 88 75
75 88 89 76
76 89 90 77
77 90 91 78
79 92 93 80
80 93 94 81
81 94 95 82
82 95 96 83
83 96 97 84
84 97 98 85
85 98 99 86
86 99 100 87
87 100 101 88
88 101 102 89
89 102 103 90
90 103 104 91
92 105 106 93
93 106 107 94
94 107 108 95
95 108 109 96
96 109 110 97
97 110 111 98
98 111 112 99
99 112 113 100
100 113 114 101
101 114 115 102
102 115 116 103
103 116 117 104
105 118 119 106
106 119 120 107
107 120 121 108
108 121 122 109
109 122 123 110
110 123 124 111
111 124 125 112
112 125 126 113
113 126 127 114
114 127 128 115
115 128 129 116
116 129 130 117
118 131 132 119
119 132 133 120
120 133 134 121
121 134 135 122
122 135 136 123
123 136 137 124
124 137 138 125
125 138 139 126
126 139 140 127
127 140 141 128
128 141 142 129
129 142 143 130
131 144 145 132
132 145 146 133
133 146 147 134
134 147 148 135
135 148 149 136
136 149 150 137
137 150 151 138
138 151 152 139
139 152 153 140
140 153 154 141
141 154 155 142
142 155 156 143
144 157 158 145
145 158 159 146
146 159 160 147
147 160 161 148
148 161 162 149
149 162 163 150
150 163 164 151
151 164 165 152
152 165 166 153
153 166 167 154
154 167 168 155
155 168 169 156
157 170 171 158
158 171 172 159
159 172 173 160
160 173 174 161
161 174 175 162
162 175 176 163
163 176 177 164
164 177 178 165
165 178 179 166
166 179 180 167
167 180 181 168
168 181 182 169
170 183 184 171
171 184 185 172
172 185 186 173
173 186 187 174
174 187 188 175
175 188 189 176
176 189 190 177
177 190 191 178
178 191 192 179
179 192 193 180
180 193 194 181
181 194 195 182
183 196 197 184
184 197 198 185
185 198 199 186
186 199 200 187
187 200 201 188
188 201 202 189
189 202 203 190
190 203 204 191
191 204 205 192
192 205 206 193
193 206 207 194
194 207 208 195
196 209 210 197
197 210 211 198
198 211 212 199
199 212 213 200
200 213 214 201
201 214 215 202
202 215 216 203
203 216 217 204
204 217 218 205
205 218 219 206
206 219 220 207
207 220 221 208
209 222 223 210
210 223 224 211
211 224 225 212
212 225 226 213
213 226 227 214
214 227 228 215
215 228 229 216
216 229 230 217
217 230 231 218
218 231 232 219
219 232 233 220
220 233 234 221
222 235 236 223
223 236 237 224
224 237 238 225
225 238 239 226
226 239 240 227
227 240 241 228
228 241 242 229
229 242 243 230
230 243 244 231
231 244 245 232
232 245 246 233
233 246 247 234
235 248 249 236
236 249 250 237
237 250 251 238
238 251 252 239
239 252 253 240
240 253 254 241
241 254 255 242
242 255 256 243
243 256 257 244
244 257 258 245
245 258 259 246
246 259 260 247ZONE T="MIXED", N=260, E=228, DATAPACKING=BLOCK, ZONETYPE=FEQUADRILATERAL
98.27 97.0 95.73 92.555 89.38 88.11 86.84 88.11 89.38 92.555 95.73 97.0 98.27 97.9878 96.7475 95.5072 92.4807 89.4543 88.214 86.9737 88.214 89.4543 92.4807 95.5072 96.7475 97.9878 97.7055 96.4949 95.2844 92.4064 89.5285 88.3179 87.1074 88.3179 89.5285 92.4064 95.2844 96.4949 97.7055 97.4233 96.2424 95.0615 92.3322 89.6028 88.4219 87.2411 88.4219 89.6028 92.3322 95.0615 96.2424 97.4233 97.141 95.9899 94.8387 92.2579 89.677 88.5259 87.3747 88.5259 89.677 92.2579 94.8387 95.9899 97.141 96.8588 95.7374 94.6159 92.1836 89.7513 88.6299 87.5084 88.6299 89.7513 92.1836 94.6159 95.7374 96.8588 96.5766 95.4848 94.3931 92.1093 89.8256 88.7338 87.6421 88.7338 89.8256 92.1093 94.3931 95.4848 96.5766 96.2943 95.2323 94.1703 92.035 89.8998 88.8378 87.7758 88.8378 89.8998 92.035 94.1703 95.2323 96.2943 96.0121 94.9798 93.9475 91.9608 89.9741 88.9418 87.9095 88.9418 89.9741 91.9608 93.9475 94.9798 96.0121 95.7298 94.7272 93.7246 91.8865 90.0484 89.0458 88.0432 89.0458 90.0484 91.8865 93.7246 94.7272 95.7298 95.4476 94.4747 93.5018 91.8122 90.1226 89.1497 88.1768 89.1497 90.1226 91.8122 93.5018 94.4747 95.4476 95.1654 94.2222 93.279 91.7379 90.1969 89.2537 88.3105 89.2537 90.1969 91.7379 93.279 94.2222 95.1654 94.8831 93.9696 93.0562 91.6637 90.2711 89.3577 88.4442 89.3577 90.2711 91.6637 93.0562 93.9696 94.8831 94.6009 93.7171 92.8334 91.5894 90.3454 89.4616 88.5779 89.4616 90.3454 91.5894 92.8334 93.7171 94.6009 94.3186 93.4646 92.6105 91.5151 90.4197 89.5656 88.7116 89.5656 90.4197 91.5151 92.6105 93.4646 94.3186 94.0364 93.2121 92.3877 91.4408 90.4939 89.6696 88.8453 89.6696 90.4939 91.4408 92.3877 93.2121 94.0364 93.7542 92.9595 92.1649 91.3665 90.5682 89.7736 88.979 89.7736 90.5682 91.3665 92.1649 92.9595 93.7542 93.4719 92.707 91.9421 91.2923 90.6424 89.8775 89.1126 89.8775 90.6424 91.2923 91.9421 92.707 93.4719 93.1897 92.4545 91.7193 91.218 90.7167 89.9815 89.2463 89.9815 90.7167 91.218 91.7193 92.4545 93.1897 92.9074 92.2019 91.4965 91.1437 90.791 90.0855 89.38 90.0855 90.791 91.1437 91.4965 92.2019 92.9074
2.6941 2.8907 3.0865 3.0865 3.0865 2.8907 2.6941 2.4975 2.3016 2.3016 2.3016 2.4975 2.6941 3.1195 3.3114 3.5027 3.5027 3.5027 3.3114 3.1195 2.9275 2.7362 2.7362 2.7362 2.9275 3.1195 3.5448 3.7322 3.9189 3.9189 3.9189 3.7322 3.5448 3.3575 3.1708 3.1708 3.1708 3.3575 3.5448 3.9702 4.153 4.3351 4.3351 4.3351 4.153 3.9702 3.7874 3.6053 3.6053 3.6053 3.7874 3.9702 4.3956 4.5738 4.7513 4.7513 4.7513 4.5738 4.3956 4.2174 4.0399 4.0399 4.0399 4.2174 4.3956 4.821 4.9946 5.1675 5.1675 5.1675 4.9946 4.821 4.6474 4.4744 4.4744 4.4744 4.6474 4.821 5.2464 5.4153 5.5837 5.5837 5.5837 5.4153 5.2464 5.0774 4.909 4.909 4.909 5.0774 5.2464 5.6717 5.8361 5.9999 5.9999 5.9999 5.8361 5.6717 5.5074 5.3436 5.3436 5.3436 5.5074 5.6717 6.0971 6.2569 6.4161 6.4161 6.4161 6.2569 6.0971 5.9373 5.7781 5.7781 5.7781 5.9373 6.0971 6.5225 6.6777 6.8323 6.8323 6.8323 6.6777 6.5225 6.3673 6.2127 6.2127 6.2127 6.3673 6.5225 6.9479 7.0985 7.2485 7.2485 7.2485 7.0985 6.9479 6.7973 6.6472 6.6472 6.6472 6.7973 6.9479 7.3733 7.5193 7.6647 7.6647 7.6647 7.5193 7.3733 7.2273 7.0818 7.0818 7.0818 7.2273 7.3733 7.7986 7.94 8.0809 8.0809 8.0809 7.94 7.7986 7.6573 7.5164 7.5164 7.5164 7.6573 7.7986 8.224 8.3608 8.4971 8.4971 8.4971 8.3608 8.224 8.0872 7.9509 7.9509 7.9509 8.0872 8.224 8.6494 8.7816 8.9133 8.9133 8.9133 8.7816 8.6494 8.5172 8.3855 8.3855 8.3855 8.5172 8.6494 9.0748 9.2024 9.3295 9.3295 9.3295 9.2024 9.0748 8.9472 8.8201 8.8201 8.8201 8.9472 9.0748 9.5002 9.6232 9.7457 9.7457 9.7457 9.6232 9.5002 9.3772 9.2546 9.2546 9.2546 9.3772 9.5002 9.9255 10.0439 10.1619 10.1619 10.1619 10.0439 9.9255 9.8072 9.6892 9.6892 9.6892 9.8072 9.9255 10.3509 10.4647 10.5781 10.5781 10.5781 10.4647 10.3509 10.2371 10.1237 10.1237 10.1237 10.2371 10.3509 10.7763 10.8855 10.9943 10.9943 10.9943 10.8855 10.7763 10.6671 10.5583 10.5583 10.5583 10.6671 10.7763
-2.6941 -2.4975 -2.3016 -2.3016 -2.3016 -2.4975 -2.6941 -2.8907 -3.0865 -3.0865 -3.0865 -2.8907 -2.6941 -3.1195 -2.9275 -2.7362 -2.7362 -2.7362 -2.9275 -3.1195 -3.3114 -3.5027 -3.5027 -3.5027 -3.3114 -3.1195 -3.5448 -3.3575 -3.1708 -3.1708 -3.1708 -3.3575 -3.5448 -3.7322 -3.9189 -3.9189 -3.9189 -3.7322 -3.5448 -3.9702 -3.7874 -3.6053 -3.6053 -3.6053 -3.7874 -3.9702 -4.153 -4.3351 -4.3351 -4.3351 -4.153 -3.9702 -4.3956 -4.2174 -4.0399 -4.0399 -4.0399 -4.2174 -4.3956 -4.5738 -4.7513 -4.7513 -4.7513 -4.5738 -4.3956 -4.821 -4.6474 -4.4744 -4.4744 -4.4744 -4.6474 -4.821 -4.9946 -5.1675 -5.1675 -5.1675 -4.9946 -4.821 -5.2464 -5.0774 -4.909 -4.909 -4.909 -5.0774 -5.2464 -5.4153 -5.5837 -5.5837 -5.5837 -5.4153 -5.2464 -5.6717 -5.5074 -5.3436 -5.3436 -5.3436 -5.5074 -5.6717 -5.8361 -5.9999 -5.9999 -5.9999 -5.8361 -5.6717 -6.0971 -5.9373 -5.7781 -5.7781 -5.7781 -5.9373 -6.0971 -6.2569 -6.4161 -6.4161 -6.4161 -6.2569 -6.0971 -6.5225 -6.3673 -6.2127 -6.2127 -6.2127 -6.3673 -6.5225 -6.6777 -6.8323 -6.8323 -6.8323 -6.6777 -6.5225 -6.9479 -6.7973 -6.6472 -6.6472 -6.6472 -6.7973 -6.9479 -7.0985 -7.2485 -7.2485 -7.2485 -7.0985 -6.9479 -7.3733 -7.2273 -7.0818 -7.0818 -7.0818 -7.2273 -7.3733 -7.5193 -7.6647 -7.6647 -7.6647 -7.5193 -7.3733 -7.7986 -7.6573 -7.5164 -7.5164 -7.5164 -7.6573 -7.7986 -7.94 -8.0809 -8.0809 -8.0809 -7.94 -7.7986 -8.224 -8.0872 -7.9509 -7.9509 -7.9509 -8.0872 -8.224 -8.3608 -8.4971 -8.4971 -8.4971 -8.3608 -8.224 -8.6494 -8.5172 -8.3855 -8.3855 -8.3855 -8.5172 -8.6494 -8.7816 -8.9133 -8.9133 -8.9133 -8.7816 -8.6494 -9.0748 -8.9472 -8.8201 -8.8201 -8.8201 -8.9472 -9.0748 -9.2024 -9.3295 -9.3295 -9.3295 -9.2024 -9.0748 -9.5002 -9.3772 -9.2546 -9.2546 -9.2546 -9.3772 -9.5002 -9.6232 -9.7457 -9.7457 -9.7457 -9.6232 -9.5002 -9.9255 -9.8072 -9.6892 -9.6892 -9.6892 -9.8072 -9.9255 -10.0439 -10.1619 -10.1619 -10.1619 -10.0439 -9.9255 -10.3509 -10.2371 -10.1237 -10.1237 -10.1237 -10.2371 -10.3509 -10.4647 -10.5781 -10.5781 -10.5781 -10.4647 -10.3509 -10.7763 -10.6671 -10.5583 -10.5583 -10.5583 -10.6671 -10.7763 -10.8855 -10.9943 -10.9943 -10.9943 -10.8855 -10.7763
0.399752 -0.151958 -0.404603 -0.378552 -0.281042 -0.28341 0.284499 0.24374 -0.156409 -0.344613 -0.420012 -0.169018 0.427714 0.369072 -0.126651 -0.351252 -0.364954 -0.278377 -0.187751 0.269426 0.161902 -0.107225 -0.313491 -0.356045 -0.140041 0.379943 0.342646 -0.179106 -0.398591 -0.383188 -0.300155 -0.220142 0.271239 0.152057 -0.139354 -0.333955 -0.402335 -0.19434 0.346529 0.319329 -0.205271 -0.419583 -0.393062 -0.313776 -0.230726 0.274709 0.145176 -0.150082 -0.342189 -0.42099 -0.216821 0.329095 0.299218 -0.227038 -0.438754 -0.403905 -0.325004 -0.23739 0.277802 0.140709 -0.158982 -0.351571 -0.439269 -0.236945 0.312307 0.280436 -0.247257 -0.458435 -0.416066 -0.333604 -0.239475 0.283113 0.139517 -0.166163 -0.362639 -0.458582 -0.25627 0.296178 0.261238 -0.268113 -0.480137 -0.429741 -0.339737 -0.237291 0.290632 0.141398 -0.171912 -0.375702 -0.480322 -0.276652 0.279515 0.240237 -0.291458 -0.505483 -0.445434 -0.343217 -0.230406 0.300891 0.146675 -0.176116 -0.391351 -0.506157 -0.29985 0.261197 0.215958 -0.31943 -0.536439 -0.463944 -0.343533 -0.217755 0.314751 0.156264 -0.178408 -0.410501 -0.538117 -0.32794 0.240001 0.185872 -0.354876 -0.575649 -0.48644 -0.339914 -0.197873 0.333013 0.171418 -0.178124 -0.434426 -0.578922 -0.363707 0.213673 0.146797 -0.401939 -0.627142 -0.514977 -0.331342 -0.168402 0.35742 0.194183 -0.174329 -0.465267 -0.632755 -0.411246 0.179393 0.0939218 -0.467416 -0.697693 -0.553347 -0.316579 -0.125941 0.390465 0.227555 -0.165844 -0.506802 -0.706491 -0.477197 0.132905 0.0198031 -0.563385 -0.799732 -0.609209 -0.294536 -0.065367 0.436587 0.276223 -0.151384 -0.56643 -0.812432 -0.573152 0.0675908 -0.0833338 -0.712152 -0.956881 -0.698198 -0.265774 0.0213491 0.505228 0.347676 -0.130792 -0.659104 -0.973601 -0.720154 -0.0235838 -0.206414 -0.966158 -1.22646 -0.860008 -0.239708 0.147009 0.620644 0.454244 -0.111252 -0.823123 -1.24419 -0.965938 -0.134558 -0.472575 -1.51017 -1.79117 -1.21649 -0.261195 0.334162 0.855089 0.618886 -0.127737 -1.16937 -1.77693 -1.46032 -0.351172 3.44824 -0.95102 -0.717718 -0.0206109 0.986984 1.44515 2.97761 1.6843 1.10906 -0.0351333 -0.919446 -1.0311 3.01083 127.364 33.5398 54.9586 2.77413 -0.943263 2.39495 19.6733 2.5342 -0.836009 4.07275 17.2977 10.903 77.2412 -736.444 -378.353 -74.1458 -72.6508 -59.0899 -38.1008 1.07144 -36.318 -58.1422 -71.4772 -114.67 -207.883 -224.964 -2315.11 -1149.32 -296.081 -196.089 -158.368 -117.876 -56.1524 -111.634 -155.904 -195.067 -377.329 -649.31 -840.07
1 14 15 2
2 15 16 3
3 16 17 4
4 17 18 5
5 18 19 6
6 19 20 7
7 20 21 8
8 21 22 9
9 22 23 10
10 23 24 11
11 24 25 12
12 25 26 13
14 27 28 15
15 28 29 16
16 29 30 17
17 30 31 18
18 31 32 19
19 32 33 20
20 33 34 21
21 34 35 22
22 35 36 23
23 36 37 24
24 37 38 25
25 38 39 26
27 40 41 28
28 41 42 29
29 42 43 30
30 43 44 31
31 44 45 32
32 45 46 33
33 46 47 34
34 47 48 35
35 48 49 36
36 49 50 37
37 50 51 38
38 51 52 39
40 53 54 41
41 54 55 42
42 55 56 43
43 56 57 44
44 57 58 45
45 58 59 46
46 59 60 47
47 60 61 48
48 61 62 49
49 62 63 50
50 63 64 51
51 64 65 52
53 66 67 54
54 67 68 55
55 68 69 56
56 69 70 57
57 70 71 58
58 71 72 59
59 72 73 60
60 73 74 61
61 74 75 62
62 75 76 63
63 76 77 64
64 77 78 65
66 79 80 67
67 80 81 68
68 81 82 69
69 82 83 70
70 83 84 71
71 84 85 72
72 85 86 73
73 86 87 74
74 87 88 75
75 88 89 76
76 89 90 77
77 90 91 78
79 92 93 80
80 93 94 81
81 94 95 82
82 95 96 83
83 96 97 84
84 97 98 85
85 98 99 86
86 99 100 87
87 100 101 88
88 101 102 89
89 102 103 90
90 103 104 91
92 105 106 93
93 106 107 94
94 107 108 95
95 108 109 96
96 109 110 97
97 110 111 98
98 111 112 99
99 112 113 100
100 113 114 101
101 114 115 102
102 115 116 103
103 116 117 104
105 118 119 106
106 119 120 107
107 120 121 108
108 121 122 109
109 122 123 110
110 123 124 111
111 124 125 112
112 125 126 113
113 126 127 114
114 127 128 115
115 128 129 116
116 129 130 117
118 131 132 119
119 132 133 120
120 133 134 121
121 134 135 122
122 135 136 123
123 136 137 124
124 137 138 125
125 138 139 126
126 139 140 127
127 140 141 128
128 141 142 129
129 142 143 130
131 144 145 132
132 145 146 133
133 146 147 134
134 147 148 135
135 148 149 136
136 149 150 137
137 150 151 138
138 151 152 139
139 152 153 140
140 153 154 141
141 154 155 142
142 155 156 143
144 157 158 145
145 158 159 146
146 159 160 147
147 160 161 148
148 161 162 149
149 162 163 150
150 163 164 151
151 164 165 152
152 165 166 153
153 166 167 154
154 167 168 155
155 168 169 156
157 170 171 158
158 171 172 159
159 172 173 160
160 173 174 161
161 174 175 162
162 175 176 163
163 176 177 164
164 177 178 165
165 178 179 166
166 179 180 167
167 180 181 168
168 181 182 169
170 183 184 171
171 184 185 172
172 185 186 173
173 186 187 174
174 187 188 175
175 188 189 176
176 189 190 177
177 190 191 178
178 191 192 179
179 192 193 180
180 193 194 181
181 194 195 182
183 196 197 184
184 197 198 185
185 198 199 186
186 199 200 187
187 200 201 188
188 201 202 189
189 202 203 190
190 203 204 191
191 204 205 192
192 205 206 193
193 206 207 194
194 207 208 195
196 209 210 197
197 210 211 198
198 211 212 199
199 212 213 200
200 213 214 201
201 214 215 202
202 215 216 203
203 216 217 204
204 217 218 205
205 218 219 206
206 219 220 207
207 220 221 208
209 222 223 210
210 223 224 211
211 224 225 212
212 225 226 213
213 226 227 214
214 227 228 215
215 228 229 216
216 229 230 217
217 230 231 218
218 231 232 219
219 232 233 220
220 233 234 221
222 235 236 223
223 236 237 224
224 237 238 225
225 238 239 226
226 239 240 227
227 240 241 228
228 241 242 229
229 242 243 230
230 243 244 231
231 244 245 232
232 245 246 233
233 246 247 234
235 248 249 236
236 249 250 237
237 250 251 238
238 251 252 239
239 252 253 240
240 253 254 241
241 254 255 242
242 255 256 243
243 256 257 244
244 257 258 245
245 258 259 246
246 259 260 247ZONE T="MIXED", N=91, E=72, DATAPACKING=BLOCK, ZONETYPE=FEQUADRILATERAL
92.17 92.17 92.17 92.17 92.17 92.17 92.17 92.17 92.17 92.17 92.17 92.17 92.17 92.2929 92.1753 92.0577 91.999 91.9402 91.8226 91.705 91.8226 91.9402 91.999 92.0577 92.1753 92.2929 92.4158 92.1806 91.9455 91.8279 91.7103 91.4752 91.24 91.4752 91.7103 91.8279 91.9455 92.1806 92.4158 92.5387 92.186 91.8332 91.6569 91.4805 91.1277 90.775 91.1277 91.4805 91.6569 91.8332 92.186 92.5387 92.6616 92.1913 91.721 91.4858 91.2506 90.7803 90.31 90.7803 91.2506 91.4858 91.721 92.1913 92.6616 92.7845 92.1966 91.6087 91.3148 91.0208 90.4329 89.845 90.4329 91.0208 91.3148 91.6087 92.1966 92.7845 92.9074 92.2019 91.4965 91.1437 90.791 90.0855 89.38 90.0855 90.791 91.1437 91.4965 92.2019 92.9074
10.7763 10.7763 10.7763 10.7763 10.7763 10.7763 10.7763 10.7763 10.7763 10.7763 10.7763 10.7763 10.7763 10.7763 10.7581 10.74 10.74 10.74 10.7581 10.7763 10.7945 10.8126 10.8126 10.8126 10.7945 10.7763 10.7763 10.7399 10.7036 10.7036 10.7036 10.7399 10.7763 10.8127 10.849 10.849 10.849 10.8127 10.7763 10.7763 10.7217 10.6673 10.6673 10.6673 10.7217 10.7763 10.8309 10.8853 10.8853 10.8853 10.8309 10.7763 10.7763 10.7035 10.631 10.631 10.631 10.7035 10.7763 10.8491 10.9216 10.9216 10.9216 10.8491 10.7763 10.7763 10.6853 10.5946 10.5946 10.5946 10.6853 10.7763 10.8673 10.958 10.958 10.958 10.8673 10.7763 10.7763 10.6671 10.5583 10.5583 10.5583 10.6671 10.7763 10.8855 10.9943 10.9943 10.9943 10.8855 10.7763
10.7763 10.7763 10.7763 10.7763 10.7763 10.7763 10.7763 10.7763 10.7763 10.7763 10.7763 10.7763 10.7763 10.7763 10.7945 10.8126 10.8126 10.8126 10.7945 10.7763 10.7581 10.74 10.74 10.74 10.7581 10.7763 10.7763 10.8127 10.849 10.849 10.849 10.8127 10.7763 10.7399 10.7036 10.7036 10.7036 10.7399 10.7763 10.7763 10.8309 10.8853 10.8853 10.8853 10.8309 10.7763 10.7217 10.6673 10.6673 10.6673 10.7217 10.7763 10.7763 10.8491 10.9216 10.9216 10.9216 10.8491 10.7763 10.7035 10.631 10.631 10.631 10.7035 10.7763 10.7763 10.8673 10.958 10.958 10.958 10.8673 10.7763 10.6853 10.5946 10.5946 10.5946 10.6853 10.7763 10.7763 10.8855 10.9943 10.9943 10.9943 10.8855 10.7763 10.6671 10.5583 10.5583 10.5583 10.6671 10.7763
-668.747 -853.792 -1208.84 -1272.26 -1025.67 -741.789 -596.109 -742.407 -977.581 -1225.66 -1215.86 -883.17 -721.277 -2857.11 -1482.0 -682.475 -823.746 -623.104 -439.774 -347.678 -442.896 -623.119 -820.372 -710.56 -1467.91 -2770.3 -10490.9 -3804.74 102.395 -508.244 -368.097 -261.395 -203.048 -263.909 -386.195 -525.609 -34.9295 -3634.72 -9804.51 -24700.9 -8261.48 697.617 -456.482 -454.933 -268.174 -245.386 -266.31 -466.174 -476.677 350.185 -7510.45 -21911.1 356517.0 90172.9 98613.5 59228.4 9323.56 6908.74 4297.81 6722.46 9401.84 61303.2 54766.7 65364.5 290428.0 -1910690.0 -1066760.0 -348694.0 -52270.5 -72155.2 -15892.3 2378.39 -15592.4 -71077.4 -52502.2 -458482.0 -788354.0 -1048280.0 -6648910.0 -3276020.0 -1080970.0 -269798.0 -178729.0 -59170.8 2936.33 -58037.4 -173495.0 -272544.0 -1345060.0 -2503760.0 -4054590.0
1 14 15 2
2 15 16 3
3 16 17 4
4 17 18 5
5 18 19 6
6 19 20 7
7 20 21 8
8 21 22 9
9 22 23 10
10 23 24 11
11 24 25 12
12 25 26 13
14 27 28 15
15 28 29 16
16 29 30 17
17 30 31 18
18 31 32 19
19 32 33 20
20 33 34 21
21 34 35 22
22 35 36 23
23 36 37 24
24 37 38 25
25 38 39 26
27 40 41 28
28 41 42 29
29 42 43 30
30 43 44 31
31 44 45 32
32 45 46 33
33 46 47 34
34 47 48 35
35 48 49 36
36 49 50 37
37 50 51 38
38 51 52 39
40 53 54 41
41 54 55 42
42 55 56 43
43 56 57 44
44 57 58 45
45 58 59 46
46 59 60 47
47 60 61 48
48 61 62 49
49 62 63 50
50 63 64 51
51 64 65 52
53 66 67 54
54 67 68 55
55 68 69 56
56 69 70 57
57 70 71 58
58 71 72 59
59 72 73 60
60 73 74 61
61 74 75 62
62 75 76 63
63 76 77 64
64 77 78 65
66 79 80 67
67 80 81 68
68 81 82 69
69 82 83 70
70 83 84 71
71 84 85 72
72 85 86 73
73 86 87 74
74 87 88 75
75 88 89 76
76 89 90 77
77 90 91 78ZONE T="MIXED", N=91, E=72, DATAPACKING=BLOCK, ZONETYPE=FEQUADRILATERAL
92.17 92.17 92.17 92.17 92.17 92.17 92.17 92.17 92.17 92.17 92.17 92.17 92.17 92.2929 92.1753 92.0577 91.999 91.9402 91.8226 91.705 91.8226 91.9402 91.999 92.0577 92.1753 92.2929 92.4158 92.1806 91.9455 91.8279 91.7103 91.4752 91.24 91.4752 91.7103 91.8279 91.9455 92.1806 92.4158 92.5387 92.186 91.8332 91.6569 91.4805 91.1277 90.775 91.1277 91.4805 91.6569 91.8332 92.186 92.5387 92.6616 92.1913 91.721 91.4858 91.2506 90.7803 90.31 90.7803 91.2506 91.4858 91.721 92.1913 92.6616 92.7845 92.1966 91.6087 91.3148 91.0208 90.4329 89.845 90.4329 91.0208 91.3148 91.6087 92.1966 92.7845 92.9074 92.2019 91.4965 91.1437 90.791 90.0855 89.38 90.0855 90.791 91.1437 91.4965 92.2019 92.9074
10.7763 10.7763 10.7763 10.7763 10.7763 10.7763 10.7763 10.7763 10.7763 10.7763 10.7763 10.7763 10.7763 10.7763 10.7945 10.8126 10.8126 10.8126 10.7945 10.7763 10.7581 10.74 10.74 10.74 10.7581 10.7763 10.7763 10.8127 10.849 10.849 10.849 10.8127 10.7763 10.7399 10.7036 10.7036 10.7036 10.7399 10.7763 10.7763 10.8309 10.8853 10.8853 10.8853 10.8309 10.7763 10.7217 10.6673 10.6673 10.6673 10.7217 10.7763 10.7763 10.8491 10.9216 10.9216 10.9216 10.8491 10.7763 10.7035 10.631 10.631 10.631 10.7035 10.7763 10.7763 10.8673 10.958 10.958 10.958 10.8673 10.7763 10.6853 10.5946 10.5946 10.5946 10.6853 10.7763 10.7763 10.8855 10.9943 10.9943 10.9943 10.8855 10.7763 10.6671 10.5583 10.5583 10.5583 10.6671 10.7763
-10.7763 -10.7763 -10.7763 -10.7763 -10.7763 -10.7763 -10.7763 -10.7763 -10.7763 -10.7763 -10.7763 -10.7763 -10.7763 -10.7763 -10.7581 -10.74 -10.74 -10.74 -10.7581 -10.7763 -10.7945 -10.8126 -10.8126 -10.8126 -10.7945 -10.7763 -10.7763 -10.7399 -10.7036 -10.7036 -10.7036 -10.7399 -10.7763 -10.8127 -10.849 -10.849 -10.849 -10.8127 -10.7763 -10.7763 -10.7217 -10.6673 -10.6673 -10.6673 -10.7217 -10.7763 -10.8309 -10.8853 -10.8853 -10.8853 -10.8309 -10.7763 -10.7763 -10.7035 -10.631 -10.631 -10.631 -10.7035 -10.7763 -10.8491 -10.9216 -10.9216 -10.9216 -10.8491 -10.7763 -10.7763 -10.6853 -10.5946 -10.5946 -10.5946 -10.6853 -10.7763 -10.8673 -10.958 -10.958 -10.958 -10.8673 -10.7763 -10.7763 -10.6671 -10.5583 -10.5583 -10.5583 -10.6671 -10.7763 -10.8855 -10.9943 -10.9943 -10.9943 -10.8855 -10.7763