# vtk DataFile Version 2.0
scalar
ASCII
DATASET UNSTRUCTURED_GRID
POINTS 1329 float
98.27 2.6941 2.6941
97.0 2.4975 2.8907
95.73 2.3016 3.0865
92.555 2.3016 3.0865
89.38 2.3016 3.0865
88.11 2.4975 2.8907
86.84 2.6941 2.6941
88.11 2.8907 2.4975
89.38 3.0865 2.3016
92.555 3.0865 2.3016
95.73 3.0865 2.3016
97.0 2.8907 2.4975
98.27 2.6941 2.6941
97.9878 3.1195 3.1195
96.7475 2.9275 3.3114
95.5072 2.7362 3.5027
92.4807 2.7362 3.5027
89.4543 2.7362 3.5027
88.214 2.9275 3.3114
86.9737 3.1195 3.1195
88.214 3.3114 2.9275
89.4543 3.5027 2.7362
92.4807 3.5027 2.7362
95.5072 3.5027 2.7362
96.7475 3.3114 2.9275
97.9878 3.1195 3.1195
97.7055 3.5448 3.5448
96.4949 3.3575 3.7322
95.2844 3.1708 3.9189
92.4064 3.1708 3.9189
89.5285 3.1708 3.9189
88.3179 3.3575 3.7322
87.1074 3.5448 3.5448
88.3179 3.7322 3.3575
89.5285 3.9189 3.1708
92.4064 3.9189 3.1708
95.2844 3.9189 3.1708
96.4949 3.7322 3.3575
97.7055 3.5448 3.5448
97.4233 3.9702 3.9702
96.2424 3.7874 4.153
95.0615 3.6053 4.3351
92.3322 3.6053 4.3351
89.6028 3.6053 4.3351
88.4219 3.7874 4.153
87.2411 3.9702 3.9702
88.4219 4.153 3.7874
89.6028 4.3351 3.6053
92.3322 4.3351 3.6053
95.0615 4.3351 3.6053
96.2424 4.153 3.7874
97.4233 3.9702 3.9702
97.141 4.3956 4.3956
95.9899 4.2174 4.5738
94.8387 4.0399 4.7513
92.2579 4.0399 4.7513
89.677 4.0399 4.7513
88.5259 4.2174 4.5738
87.3747 4.3956 4.3956
88.5259 4.5738 4.2174
89.677 4.7513 4.0399
92.2579 4.7513 4.0399
94.8387 4.7513 4.0399
95.9899 4.5738 4.2174
97.141 4.3956 4.3956
96.8588 4.821 4.821
95.7374 4.6474 4.9946
94.6159 4.4744 5.1675
92.1836 4.4744 5.1675
89.7513 4.4744 5.1675
88.6299 4.6474 4.9946
87.5084 4.821 4.821
88.6299 4.9946 4.6474
89.7513 5.1675 4.4744
92.1836 5.1675 4.4744
94.6159 5.1675 4.4744
95.7374 4.9946 4.6474
96.8588 4.821 4.821
96.5766 5.2464 5.2464
95.4848 5.0774 5.4153
94.3931 4.909 5.5837
92.1093 4.909 5.5837
89.8256 4.909 5.5837
88.7338 5.0774 5.4153
87.6421 5.2464 5.2464
88.7338 5.4153 5.0774
89.8256 5.5837 4.909
92.1093 5.5837 4.909
94.3931 5.5837 4.909
95.4848 5.4153 5.0774
96.5766 5.2464 5.2464
96.2943 5.6717 5.6717
95.2323 5.5074 5.8361
94.1703 5.3436 5.9999
92.035 5.3436 5.9999
89.8998 5.3436 5.9999
88.8378 5.5074 5.8361
87.7758 5.6717 5.6717
88.8378 5.8361 5.5074
89.8998 5.9999 5.3436
92.035 5.9999 5.3436
94.1703 5.9999 5.3436
95.2323 5.8361 5.5074
96.2943 5.6717 5.6717
96.0121 6.0971 6.0971
94.9798 5.9373 6.2569
93.9475 5.7781 6.4161
91.9608 5.7781 6.4161
89.9741 5.7781 6.4161
88.9418 5.9373 6.2569
87.9095 6.0971 6.0971
88.9418 6.2569 5.9373
89.9741 6.4161 5.7781
91.9608 6.4161 5.7781
93.9475 6.4161 5.7781
94.9798 6.2569 5.9373
96.0121 6.0971 6.0971
95.7298 6.5225 6.5225
94.7272 6.3673 6.6777
93.7246 6.2127 6.8323
91.8865 6.2127 6.8323
90.0484 6.2127 6.8323
89.0458 6.3673 6.6777
88.0432 6.5225 6.5225
89.0458 6.6777 6.3673
90.0484 6.8323 6.2127
91.8865 6.8323 6.2127
93.7246 6.8323 6.2127
94.7272 6.6777 6.3673
95.7298 6.5225 6.5225
95.4476 6.9479 6.9479
94.4747 6.7973 7.0985
93.5018 6.6472 7.2485
91.8122 6.6472 7.2485
90.1226 6.6472 7.2485
89.1497 6.7973 7.0985
88.1768 6.9479 6.9479
89.1497 7.0985 6.7973
90.1226 7.2485 6.6472
91.8122 7.2485 6.6472
93.5018 7.2485 6.6472
94.4747 7.0985 6.7973
95.4476 6.9479 6.9479
95.1654 7.3733 7.3733
94.2222 7.2273 7.5193
93.279 7.0818 7.6647
91.7379 7.0818 7.6647
90.1969 7.0818 7.6647
89.2537 7.2273 7.5193
88.3105 7.3733 7.3733
89.2537 7.5193 7.2273
90.1969 7.6647 7.0818
91.7379 7.6647 7.0818
93.279 7.6647 7.0818
94.2222 7.5193 7.2273
95.1654 7.3733 7.3733
94.8831 7.7986 7.7986
93.9696 7.6573 7.94
93.0562 7.5164 8.0809
91.6637 7.5164 8.0809
90.2711 7.5164 8.0809
89.3577 7.6573 7.94
88.4442 7.7986 7.7986
89.3577 7.94 7.6573
90.2711 8.0809 7.5164
91.6637 8.0809 7.5164
93.0562 8.0809 7.5164
93.9696 7.94 7.6573
94.8831 7.7986 7.7986
94.6009 8.224 8.224
93.7171 8.0872 8.3608
92.8334 7.9509 8.4971
91.5894 7.9509 8.4971
90.3454 7.9509 8.4971
89.4616 8.0872 8.3608
88.5779 8.224 8.224
89.4616 8.3608 8.0872
90.3454 8.4971 7.9509
91.5894 8.4971 7.9509
92.8334 8.4971 7.9509
93.7171 8.3608 8.0872
94.6009 8.224 8.224
94.3186 8.6494 8.6494
93.4646 8.5172 8.7816
92.6105 8.3855 8.9133
91.5151 8.3855 8.9133
90.4197 8.3855 8.9133
89.5656 8.5172 8.7816
88.7116 8.6494 8.6494
89.5656 8.7816 8.5172
90.4197 8.9133 8.3855
91.5151 8.9133 8.3855
92.6105 8.9133 8.3855
93.4646 8.7816 8.5172
94.3186 8.6494 8.6494
94.0364 9.0748 9.0748
93.2121 8.9472 9.2024
92.3877 8.8201 9.3295
91.4408 8.8201 9.3295
90.4939 8.8201 9.3295
89.6696 8.9472 9.2024
88.8453 9.0748 9.0748
89.6696 9.2024 8.9472
90.4939 9.3295 8.8201
91.4408 9.3295 8.8201
92.3877 9.3295 8.8201
93.2121 9.2024 8.9472
94.0364 9.0748 9.0748
93.7542 9.5002 9.5002
92.9595 9.3772 9.6232
92.1649 9.2546 9.7457
91.3665 9.2546 9.7457
90.5682 9.2546 9.7457
89.7736 9.3772 9.6232
88.979 9.5002 9.5002
89.7736 9.6232 9.3772
90.5682 9.7457 9.2546
91.3665 9.7457 9.2546
92.1649 9.7457 9.2546
92.9595 9.6232 9.3772
93.7542 9.5002 9.5002
93.4719 9.9255 9.9255
92.707 9.8072 10.0439
91.9421 9.6892 10.1619
91.2923 9.6892 10.1619
90.6424 9.6892 10.1619
89.8775 9.8072 10.0439
89.1126 9.9255 9.9255
89.8775 10.0439 9.8072
90.6424 10.1619 9.6892
91.2923 10.1619 9.6892
91.9421 10.1619 9.6892
92.707 10.0439 9.8072
93.4719 9.9255 9.9255
93.1897 10.3509 10.3509
92.4545 10.2371 10.4647
91.7193 10.1237 10.5781
91.218 10.1237 10.5781
90.7167 10.1237 10.5781
89.9815 10.2371 10.4647
89.2463 10.3509 10.3509
89.9815 10.4647 10.2371
90.7167 10.5781 10.1237
91.218 10.5781 10.1237
91.7193 10.5781 10.1237
92.4545 10.4647 10.2371
93.1897 10.3509 10.3509
92.9074 10.7763 10.7763
92.2019 10.6671 10.8855
91.4965 10.5583 10.9943
91.1437 10.5583 10.9943
90.791 10.5583 10.9943
90.0855 10.6671 10.8855
89.38 10.7763 10.7763
90.0855 10.8855 10.6671
90.791 10.9943 10.5583
91.1437 10.9943 10.5583
91.4965 10.9943 10.5583
92.2019 10.8855 10.6671
92.9074 10.7763 10.7763
98.27 2.6941 -2.6941
97.0 2.8907 -2.4975
95.73 3.0865 -2.3016
92.555 3.0865 -2.3016
89.38 3.0865 -2.3016
88.11 2.8907 -2.4975
86.84 2.6941 -2.6941
88.11 2.4975 -2.8907
89.38 2.3016 -3.0865
92.555 2.3016 -3.0865
95.73 2.3016 -3.0865
97.0 2.4975 -2.8907
98.27 2.6941 -2.6941
97.9878 3.1195 -3.1195
96.7475 3.3114 -2.9275
95.5072 3.5027 -2.7362
92.4807 3.5027 -2.7362
89.4543 3.5027 -2.7362
88.214 3.3114 -2.9275
86.9737 3.1195 -3.1195
88.214 2.9275 -3.3114
89.4543 2.7362 -3.5027
92.4807 2.7362 -3.5027
95.5072 2.7362 -3.5027
96.7475 2.9275 -3.3114
97.9878 3.1195 -3.1195
97.7055 3.5448 -3.5448
96.4949 3.7322 -3.3575
95.2844 3.9189 -3.1708
92.4064 3.9189 -3.1708
89.5285 3.9189 -3.1708
88.3179 3.7322 -3.3575
87.1074 3.5448 -3.5448
88.3179 3.3575 -3.7322
89.5285 3.1708 -3.9189
92.4064 3.1708 -3.9189
95.2844 3.1708 -3.9189
96.4949 3.3575 -3.7322
97.7055 3.5448 -3.5448
97.4233 3.9702 -3.9702
96.2424 4.153 -3.7874
95.0615 4.3351 -3.6053
92.3322 4.3351 -3.6053
89.6028 4.3351 -3.6053
88.4219 4.153 -3.7874
87.2411 3.9702 -3.9702
88.4219 3.7874 -4.153
89.6028 3.6053 -4.3351
92.3322 3.6053 -4.3351
95.0615 3.6053 -4.3351
96.2424 3.7874 -4.153
97.4233 3.9702 -3.9702
97.141 4.3956 -4.3956
95.9899 4.5738 -4.2174
94.8387 4.7513 -4.0399
92.2579 4.7513 -4.0399
89.677 4.7513 -4.0399
88.5259 4.5738 -4.2174
87.3747 4.3956 -4.3956
88.5259 4.2174 -4.5738
89.677 4.0399 -4.7513
92.2579 4.0399 -4.7513
94.8387 4.0399 -4.7513
95.9899 4.2174 -4.5738
97.141 4.3956 -4.3956
96.8588 4.821 -4.821
95.7374 4.9946 -4.6474
94.6159 5.1675 -4.4744
92.1836 5.1675 -4.4744
89.7513 5.1675 -4.4744
88.6299 4.9946 -4.6474
87.5084 4.821 -4.821
88.6299 4.6474 -4.9946
89.7513 4.4744 -5.1675
92.1836 4.4744 -5.1675
94.6159 4.4744 -5.1675
95.7374 4.6474 -4.9946
96.8588 4.821 -4.821
96.5766 5.2464 -5.2464
95.4848 5.4153 -5.0774
94.3931 5.5837 -4.909
92.1093 5.5837 -4.909
89.8256 5.5837 -4.909
88.7338 5.4153 -5.0774
87.6421 5.2464 -5.2464
88.7338 5.0774 -5.4153
89.8256 4.909 -5.5837
92.1093 4.909 -5.5837
94.3931 4.909 -5.5837
95.4848 5.0774 -5.4153
96.5766 5.2464 -5.2464
96.2943 5.6717 -5.6717
95.2323 5.8361 -5.5074
94.1703 5.9999 -5.3436
92.035 5.9999 -5.3436
89.8998 5.9999 -5.3436
88.8378 5.8361 -5.5074
87.7758 5.6717 -5.6717
88.8378 5.5074 -5.8361
89.8998 5.3436 -5.9999
92.035 5.3436 -5.9999
94.1703 5.3436 -5.9999
95.2323 5.5074 -5.8361
96.2943 5.6717 -5.6717
96.0121 6.0971 -6.0971
94.9798 6.2569 -5.9373
93.9475 6.4161 -5.7781
91.9608 6.4161 -5.7781
89.9741 6.4161 -5.7781
88.9418 6.2569 -5.9373
87.9095 6.0971 -6.0971
88.9418 5.9373 -6.2569
89.9741 5.7781 -6.4161
91.9608 5.7781 -6.4161
93.9475 5.7781 -6.4161
94.9798 5.9373 -6.2569
96.0121 6.0971 -6.0971
95.7298 6.5225 -6.5225
94.7272 6.6777 -6.3673
93.7246 6.8323 -6.2127
91.8865 6.8323 -6.2127
90.0484 6.8323 -6.2127
89.0458 6.6777 -6.3673
88.0432 6.5225 -6.5225
89.0458 6.3673 -6.6777
90.0484 6.2127 -6.8323
91.8865 6.2127 -6.8323
93.7246 6.2127 -6.8323
94.7272 6.3673 -6.6777
95.7298 6.5225 -6.5225
95.4476 6.9479 -6.9479
94.4747 7.0985 -6.7973
93.5018 7.2485 -6.6472
91.8122 7.2485 -6.6472
90.1226 7.2485 -6.6472
89.1497 7.0985 -6.7973
88.1768 6.9479 -6.9479
89.1497 6.7973 -7.0985
90.1226 6.6472 -7.2485
91.8122 6.6472 -7.2485
93.5018 6.6472 -7.2485
94.4747 6.7973 -7.0985
95.4476 6.9479 -6.9479
95.1654 7.3733 -7.3733
94.2222 7.5193 -7.2273
93.279 7.6647 -7.0818
91.7379 7.6647 -7.0818
90.1969 7.6647 -7.0818
89.2537 7.5193 -7.2273
88.3105 7.3733 -7.3733
89.2537 7.2273 -7.5193
90.1969 7.0818 -7.6647
91.7379 7.0818 -7.6647
93.279 7.0818 -7.6647
94.2222 7.2273 -7.5193
95.1654 7.3733 -7.3733
94.8831 7.7986 -7.7986
93.9696 7.94 -7.6573
93.0562 8.0809 -7.5164
91.6637 8.0809 -7.5164
90.2711 8.0809 -7.5164
89.3577 7.94 -7.6573
88.4442 7.7986 -7.7986
89.3577 7.6573 -7.94
90.2711 7.5164 -8.0809
91.6637 7.5164 -8.0809
93.0562 7.5164 -8.0809
93.9696 7.6573 -7.94
94.8831 7.7986 -7.7986
94.6009 8.224 -8.224
93.7171 8.3608 -8.0872
92.8334 8.4971 -7.9509
91.5894 8.4971 -7.9509
90.3454 8.4971 -7.9509
89.4616 8.3608 -8.0872
88.5779 8.224 -8.224
89.4616 8.0872 -8.3608
90.3454 7.9509 -8.4971
91.5894 7.9509 -8.4971
92.8334 7.9509 -8.4971
93.7171 8.0872 -8.3608
94.6009 8.224 -8.224
94.3186 8.6494 -8.6494
93.4646 8.7816 -8.5172
92.6105 8.9133 -8.3855
[...]
POINT_DATA 1329
SCALARS cp1 float
LOOKUP_TABLE default
0.386533
-0.183565
-0.443421
-0.413821
-0.313874
-0.287246
0.309741
0.219543
-0.187339
-0.379081
-0.459568
-0.203431
0.40981
0.359231
-0.154702
-0.387021
-0.398342
-0.304691
-0.1951
0.287188
0.141437
-0.136762
-0.34759
-0.392856
-0.169975
0.367716
0.337518
-0.206892
-0.435589
-0.415869
-0.326688
-0.23034
0.28212
0.127541
-0.169705
-0.367975
-0.440594
-0.223757
0.340151
0.318299
-0.232734
-0.457458
-0.423899
-0.336827
-0.240397
0.280714
0.120699
-0.178145
-0.375168
-0.46077
-0.246486
0.326225
0.300427
-0.255045
-0.477783
-0.432424
-0.343573
-0.245031
0.281235
0.117947
-0.183522
-0.383082
-0.480883
-0.267741
0.311197
0.282598
-0.276361
-0.498602
-0.441774
-0.346914
-0.244015
0.285362
0.119647
-0.186252
-0.392225
-0.502124
-0.288804
0.295636
0.263338
-0.298769
-0.521412
-0.452176
-0.347059
-0.237765
0.292895
0.125432
-0.186715
-0.402911
-0.525888
-0.311507
0.278477
0.241267
-0.324177
-0.547881
-0.464077
-0.343727
-0.225882
0.304124
0.13555
-0.184768
-0.415696
-0.55388
-0.33765
0.258605
0.214753
-0.354863
-0.580042
-0.478219
-0.33626
-0.207205
0.319865
0.150982
-0.179922
-0.431442
-0.588189
-0.36941
0.234738
0.181044
-0.393959
-0.620739
-0.495727
-0.323632
-0.180063
0.340951
0.173165
-0.17126
-0.45136
-0.631748
-0.409882
0.204377
0.136493
-0.446165
-0.674421
-0.51868
-0.304469
-0.141771
0.369241
0.204464
-0.157491
-0.477572
-0.689125
-0.463713
0.164226
0.0753998
-0.519345
-0.748704
-0.551111
-0.277097
-0.0884
0.407567
0.248377
-0.136985
-0.514032
-0.767974
-0.538549
0.109185
-0.0110376
-0.62762
-0.857814
-0.601594
-0.240028
-0.0140851
0.460867
0.310326
-0.107946
-0.568894
-0.882253
-0.64789
0.0312932
-0.132008
-0.797563
-1.02952
-0.688539
-0.193963
0.0903775
0.540079
0.399006
-0.0700775
-0.659545
-1.05872
-0.816569
-0.0778063
-0.276115
-1.09212
-1.3324
-0.859878
-0.150329
0.239699
0.673923
0.52874
-0.0320405
-0.832029
-1.36193
-1.10158
-0.210257
-0.584605
-1.73443
-1.99184
-1.26829
-0.164046
0.459763
0.950656
0.726149
-0.036613
-1.22496
-1.98081
-1.68322
-0.460557
4.40202
-0.978193
-0.583606
0.285453
1.42428
1.8302
3.58223
2.04618
1.54902
0.262854
-0.840537
-1.07964
3.84356
161.462
42.9842
70.2968
4.32254
-0.435137
3.3142
25.5005
3.45385
-0.37496
5.92955
22.3422
14.1604
97.959
-932.427
-478.563
-94.2315
-93.3208
-76.2656
-50.1765
0.0177857
-47.8573
-75.2801
-91.6941
-145.753
-262.189
-282.108
-2931.75
-1454.55
-377.647
-254.761
-206.985
-156.051
-77.0879
-147.815
-204.597
-252.698
-480.519
-820.037
-1057.06
0.399752
-0.151958
-0.404603
-0.378552
-0.281042
-0.28341
0.284499
0.24374
-0.156409
-0.344613
-0.420012
-0.169018
0.427714
0.369072
-0.126651
-0.351252
-0.364954
-0.278377
-0.187751
0.269426
0.161902
-0.107225
-0.313491
-0.356045
-0.140041
0.379943
0.342646
-0.179106
-0.398591
-0.383188
-0.300155
-0.220142
0.271239
0.152057
-0.139354
-0.333955
-0.402335
-0.19434
0.346529
0.319329
-0.205271
-0.419583
-0.393062
-0.313776
-0.230726
0.274709
0.145176
-0.150082
-0.342189
-0.42099
-0.216821
0.329095
0.299218
-0.227038
-0.438754
-0.403905
-0.325004
-0.23739
0.277802
0.140709
-0.158982
-0.351571
-0.439269
-0.236945
0.312307
0.280436
-0.247257
-0.458435
-0.416066
-0.333604
-0.239475
0.283113
0.139517
-0.166163
-0.362639
-0.458582
-0.25627
0.296178
0.261238
-0.268113
-0.480137
-0.429741
-0.339737
-0.237291
0.290632
0.141398
-0.171912
-0.375702
-0.480322
-0.276652
0.279515
0.240237
-0.291458
-0.505483
-0.445434
-0.343217
-0.230406
0.300891
0.146675
-0.176116
-0.391351
-0.506157
-0.29985
0.261197
0.215958
-0.31943
-0.536439
-0.463944
-0.343533
-0.217755
0.314751
0.156264
-0.178408
-0.410501
-0.538117
-0.32794
0.240001
0.185872
-0.354876
-0.575649
-0.48644
-0.339914
-0.197873
0.333013
0.171418
-0.178124
-0.434426
-0.578922
-0.363707
0.213673
0.146797
-0.401939
-0.627142
-0.514977
-0.331342
-0.168402
0.35742
0.194183
-0.174329
-0.465267
-0.632755
-0.411246
0.179393
0.0939218
-0.467416
-0.697693
-0.553347
-0.316579
-0.125941
0.390465
0.227555
-0.165844
-0.506802
-0.706491
-0.477197
0.132905
0.0198031
-0.563385
-0.799732
-0.609209
-0.294536
-0.065367
0.436587
0.276223
-0.151384
-0.56643
-0.812432
-0.573152
0.0675908
-0.0833338
-0.712152
-0.956881
-0.698198
-0.265774
0.0213491
0.505228
0.347676
-0.130792
-0.659104
-0.973601
-0.720154
-0.0235838
-0.206414
-0.966158
-1.22646
-0.860008
-0.239708
0.147009
0.620644
0.454244
-0.111252
-0.823123
-1.24419
-0.965938
-0.134558
-0.472575
-1.51017
-1.79117
-1.21649
-0.261195
0.334162
0.855089
0.618886
-0.127737
-1.16937
-1.77693
-1.46032
-0.351172
3.44824
-0.95102
-0.717718
-0.0206109
0.986984
1.44515
2.97761
1.6843
1.10906
-0.0351333
-0.919446
-1.0311
3.01083
127.364
33.5398
54.9586
2.77413
-0.943263
2.39495
19.6733
2.5342
-0.836009
4.07275
17.2977
10.903
77.2412
-736.444
-378.353
-74.1458
-72.6508
-59.0899
-38.1008
1.07144
-36.318
-58.1422
-71.4772
-114.67
-207.883
-224.964
-2315.11
-1149.32
-296.081
-196.089
-158.368
-117.876
-56.1524
-111.634
-155.904
-195.067
-377.329
-649.31
-840.07
-668.747
-853.792
-1208.84
-1272.26
-1025.67
-741.789
-596.109
-742.407
-977.581
-1225.66
-1215.86
-883.17
-721.277
-2857.11
-1482.0
-682.475
-823.746
-623.104
-439.774
-347.678
-442.896
-623.119
-820.372
-710.56
-1467.91
-2770.3
-10490.9
-3804.74
102.395
-508.244
-368.097
-261.395
-203.048
-263.909
-386.195
-525.609
-34.9295
-3634.72
-9804.51
-24700.9
-8261.48
697.617
-456.482
-454.933
-268.174
-245.386
-266.31
-466.174
-476.677
350.185
-7510.45
-21911.1
356517.0
90172.9
98613.5
59228.4
9323.56
6908.74
4297.81
6722.46
9401.84
61303.2
54766.7
65364.5
290428.0
-1910690.0
-1066760.0
-348694.0
-52270.5
-72155.2
-15892.3
2378.39
-15592.4
-71077.4
-52502.2
-458482.0
-788354.0
-1048280.0
-6648910.0
-3276020.0
-1080970.0
-269798.0
-178729.0
-59170.8
2936.33
-58037.4
-173495.0
-272544.0
-1345060.0
-2503760.0
-4054590.0
-515.4
-652.389
-929.201
-972.588
-774.106
-566.554
-459.672
-567.397
-737.489
-937.582
-934.964
-672.983
-552.721
-2131.67
-1111.87
-520.658
-632.349
-475.524
-336.893
-267.586
-339.447
-475.937
-630.379
-543.315
-1103.92
-2071.33
-8066.12
-2914.49
94.7829
-392.911
-283.349
-200.915
-155.325
-202.725
-297.443
-406.518
-12.0378
-2791.71
-7557.23
-19268.4
-6415.93
575.848
-351.413
-349.44
-203.684
-184.414
-202.357
-357.309
-366.296
304.536
-5850.64
-17149.0
286490.0
72518.2
79153.3
47352.8
7421.35
5480.36
3411.09
5339.79
7513.55
49142.0
44445.9
52939.1
234543.0
-1533030.0
-855522.0
-278580.0
-41330.2
-57087.9
-12420.9
2044.76
-12217.6
-56319.7
-41645.7
-366814.0
-636091.0
-850458.0
-5335020.0
-2627600.0
-864051.0
-214121.0
-141103.0
-46328.4
2733.39
-45550.1
-137106.0
-216982.0
-1076840.0
-2019540.0
-3283450.0
0.633691
0.453971
0.302938
0.224314
0.159132
0.102098
0.0531139
0.010606
-0.0261425
-0.0580327
-0.085555
-0.108761
-0.127837
-0.143096
-0.154382
-0.161352
-0.164109
-0.16675
-0.129681
-0.0806558
-0.0170646
-0.0047075
-0.00078348
0.00498901
0.0131914
0.0249134
0.0509414
0.113614
0.195283
0.623488
0.439812
0.296332
0.211326
0.144749
0.088333
0.0402343
-0.00117096
-0.0368324
-0.0675762
-0.0938949
-0.115926
-0.133843
-0.147902
-0.157963
-0.163696
-0.164992
-0.162529
-0.130003
-0.0916091
-0.0259294
-0.00664555
0.000280066
0.00703145
0.0161834
0.0304437
0.0595474
0.124475
0.209622
0.606141
0.42097
0.276699
0.19485
0.1302
0.0750885
0.0282152
-0.0120497
-0.0466392
-0.0763186
-0.101602
-0.122657
-0.139609
-0.152697
-0.161819
-0.166627
-0.167129
-0.165084
-0.129508
-0.0865081
-0.0213722
-0.00364912
0.00234704
0.00878106
0.0176209
0.0310266
0.0587585
0.130662
0.232242
0.593444
0.408896
0.265554
0.1845
0.120626
0.0663207
0.0202689
-0.0192066
-0.0530182
-0.0818842
-0.106362
-0.126656
-0.142852
-0.155143
-0.163489
-0.167552
-0.167337
-0.164637
-0.128182
-0.0845556
-0.0187155
-0.000850083
0.00515777
0.0115976
0.0204476
0.0338924
0.0616542
0.133657
0.236857
0.584414
0.400351
0.257556
0.17709
0.113836
0.0601533
0.0146922
-0.0241702
-0.0573448
-0.0856145
-0.109508
-0.129182
-0.144742
-0.15645
-0.164215
-0.167686
-0.166881
-0.1636
-0.126425
-0.0823799
-0.0160189
0.00195691
0.00797643
0.0144282
0.0232849
0.0367869
0.0649147
0.128593
0.211628
0.579076
0.397805
0.256634
0.174464
0.110762
0.0572252
0.0119905
-0.0265752
-0.0594136
-0.0873619
-0.110908
-0.130186
-0.145361
-0.156705
-0.164086
-0.167183
-0.165911
-0.161007
-0.125612
-0.0852764
-0.0171051
0.00274305
0.00974946
0.0165354
0.0257106
0.0400425
0.0696616
0.125168
0.191269
0.577214
0.390558
0.240161
0.166387
0.105858
0.0533245
0.00875671
-0.0293898
-0.0618374
-0.0894845
-0.112807
-0.13185
-0.146798
-0.157982
-0.165235
-0.168242
-0.167137
-0.166147
-0.124684
-0.0722627
-0.00535261
0.00753889
0.0114819
0.01728
0.0255051
0.0374385
0.0660217
0.120234
0.183078
0.739647
0.546982
0.387529
0.303812
0.233799
0.171983
0.1184
0.0714053
0.0302451
-0.00595337
-0.0376982
-0.0650458
-0.088178
-0.107411
-0.122567
-0.133297
-0.139688
-0.145574
-0.112952
-0.0663143
-0.00505735
0.00745861
0.0114911
0.0172878
0.0254994
0.0367104
0.0614725
0.135843
0.238971
0.736641
0.54454
0.394268
0.302958
0.230432
0.168244
0.114571
0.0677336
0.0267504
-0.00919946
-0.0406227
-0.0676663
-0.0904937
-0.109364
-0.12413
-0.134433
-0.140134
-0.14174
-0.11388
-0.0780945
-0.0158369
0.00294243
0.00981051
0.0165535
0.0257168
0.0398411
0.0694807
0.144386
0.2473
0.726413
0.532149
0.381518
0.292922
0.221764
0.160292
0.107239
0.0609318
0.0204098
-0.0150819
-0.0460772
-0.0727532
-0.0952234
-0.113728
-0.12816
-0.138139
-0.143635
-0.146196
-0.116085
-0.0763825
-0.0151019
0.00207183
0.00801521
0.0144348
0.0232719
0.0364258
0.0643205
0.145367
0.263446
0.709265
0.516431
0.366735
0.27903
0.208699
0.14805
0.0958036
0.0502405
0.0104365
-0.0243149
-0.0545923
-0.0806101
-0.10244
-0.120271
-0.134059
-0.143433
-0.148362
-0.150421
-0.119723
-0.0796491
-0.0179649
-0.000755022
0.00518786
0.0116013
0.0204336
0.0336108
0.0616911
0.142053
0.25953
0.688414
0.497206
0.348766
0.262154
0.192885
0.133258
0.0819683
0.0373537
-0.00149856
-0.0353626
-0.0647893
-0.0899318
-0.110883
-0.127905
-0.140903
-0.149495
-0.153666
-0.154994
-0.123502
-0.083043
-0.0208464
-0.00360115
0.00233286
0.00874664
0.0175731
0.0307949
0.0590572
0.130446
0.225772
0.665099
0.478232
0.331728
0.244323
0.175515
0.11691
0.0666938
0.0231791
-0.0145611
-0.0473563
-0.0757073
-0.0997437
-0.119618
-0.135606
-0.147564
-0.155153
-0.158257
-0.157439
-0.12702
-0.0897327
-0.02561
-0.00651405
0.000372149
0.00710844
0.0162473
0.03038
0.0604207
0.123709
0.202628
0.652708
0.452837
0.295526
0.218028
0.15374
0.0973249
0.0489284
0.00690243
-0.0294338
-0.0609314
-0.0880972
-0.110958
-0.129694
-0.14464
-0.155603
-0.162274
-0.164769
-0.167009
-0.130399
-0.0810771
-0.0173557
-0.00445655
-0.000454521
0.00532628
0.0135083
0.0249208
0.0525411
0.115529
0.19432
-0.0223052
-0.17651
-0.268134
-0.27689
-0.158007
-0.0239447
0.167481
0.0354096
-0.157233
-0.265278
-0.279289
-0.170338
-0.0349277
0.18649
0.179642
-0.137786
-0.31294
-0.343965
-0.239749
-0.0701721
0.238109
0.367731
-0.137419
-0.379938
-0.40451
-0.31403
-0.129032
0.288942
0.206135
-0.205108
-0.389821
-0.357031
-0.151357
0.161259
0.699723
0.10597
-0.173734
-0.319093
-0.293386
-0.094451
0.139788
0.491086
0.019361
-0.163291
-0.260604
-0.236195
-0.0696519
0.0899567
0.31678
-0.0182348
-0.167319
-0.258302
-0.245774
-0.0935439
0.0388202
0.220128
-0.0214846
-0.164696
-0.248278
-0.237523
-0.0998528
0.0343989
0.215696
0.0465315
-0.135804
-0.238577
-0.244286
-0.131999
-0.00281096
0.205409
0.197863
-0.108376
-0.279948
-0.310513
-0.212816
-0.0546403
0.237939
0.390085
-0.103504
-0.343943
-0.36955
-0.28755
-0.117645
0.281764
0.225059
-0.17146
-0.353174
-0.323059
-0.125059
0.177693
0.712379
0.125669
-0.142933
-0.285327
-0.260189
-0.0651162
0.165204
0.515511
0.0349739
-0.138668
-0.232023
-0.200049
-0.0258274
0.135972
0.364253
-0.0119928
-0.151083
-0.235667
-0.205317
-0.0302183
0.112667
0.300078
-0.0745292
-0.0666139
-0.0633317
-0.0669503
-0.0695952
-0.0212455
-0.0379366
-0.043802
-0.0533848
-0.0449327
-0.0377011
-0.0728941
-0.104997
-0.100543
-0.0782023
-0.0241862
-0.0975337
-0.161037
-0.142927
-0.108789
0.0319486
-0.0428711
-0.0876324
-0.0883151
-0.0622873
-0.0169674
-0.0359904
-0.0464715
-0.0572395
-0.0573115
-0.0712959
-0.0670851
-0.0648646
-0.0698861
-0.0768664
-0.0641696
-0.0577782
-0.0550656
-0.0589119
-0.0624433
-0.0102979
-0.0286932
-0.0352808
-0.0452373
-0.0371448
-0.0275225
-0.0641032
-0.0955185
-0.091256
-0.0663018
-0.0300533
-0.0995301
-0.162827
-0.143152
-0.108929
0.0302022
-0.0435216
-0.0889795
-0.0890678
-0.0637872
-0.00589301
-0.0285997
-0.0391972
-0.0508509
-0.049011
-0.0682865
-0.0652713
-0.0634505
-0.0679153
-0.0744912
-0.041139
-0.0498512
-0.112026
-0.171475
-0.128394
-0.065847
-0.0429421
-0.0451027
-0.108725
-0.167565
-0.124605
-0.0665801
-0.0347892
-0.0617315
-0.0659561
-0.0852765
-0.10295
-0.0901691
-0.0711004
-0.0637805
-0.0647293
-0.0839981
-0.101508
-0.0887765
-0.0701344
-0.0574487
-0.0827017
-0.0749141
-0.0589851
-0.0491562
-0.0548557
-0.0697389
-0.0791267
-0.0743424
-0.0597118
-0.0501774
-0.0558966
-0.0719941
-0.0807925
