# vtk DataFile Version 2.0
scalar
ASCII
DATASET UNSTRUCTURED_GRID
POINTS 2917 float
98.27 2.6941 2.6941
97.635 2.5958 2.7924
96.365 2.3992 2.9889
95.73 2.3016 3.0865
92.555 2.3016 3.0865
89.38 2.3016 3.0865
88.745 2.3992 2.9889
87.475 2.5958 2.7924
86.84 2.6941 2.6941
87.475 2.7924 2.5958
88.745 2.9889 2.3992
89.38 3.0865 2.3016
92.555 3.0865 2.3016
95.73 3.0865 2.3016
96.365 2.9889 2.3992
97.635 2.7924 2.5958
98.27 2.6941 2.6941
98.2049 2.9013 2.9013
97.5771 2.8041 2.9985
96.3216 2.6098 3.1928
95.6938 2.5133 3.2893
92.555 2.5133 3.2893
89.4162 2.5133 3.2893
88.7884 2.6098 3.1928
87.5329 2.8041 2.9985
86.9051 2.9013 2.9013
87.5329 2.9985 2.8041
88.7884 3.1928 2.6098
89.4162 3.2893 2.5133
92.555 3.2893 2.5133
95.6938 3.2893 2.5133
96.3216 3.1928 2.6098
97.5771 2.9985 2.8041
98.2049 2.9013 2.9013
98.1397 3.1086 3.1086
97.5192 3.0125 3.2046
96.2781 2.8204 3.3967
95.6576 2.7251 3.492
92.555 2.7251 3.492
89.4524 2.7251 3.492
88.8318 2.8204 3.3967
87.5908 3.0125 3.2046
86.9703 3.1086 3.1086
87.5908 3.2046 3.0125
88.8318 3.3967 2.8204
89.4524 3.492 2.7251
92.555 3.492 2.7251
95.6576 3.492 2.7251
96.2781 3.3967 2.8204
97.5192 3.2046 3.0125
98.1397 3.1086 3.1086
98.0746 3.3158 3.3158
97.4613 3.2209 3.4107
96.2347 3.031 3.6006
95.6214 2.9368 3.6948
92.555 2.9368 3.6948
89.4885 2.9368 3.6948
88.8753 3.031 3.6006
87.6487 3.2209 3.4107
87.0354 3.3158 3.3158
87.6487 3.4107 3.2209
88.8753 3.6006 3.031
89.4885 3.6948 2.9368
92.555 3.6948 2.9368
95.6214 3.6948 2.9368
96.2347 3.6006 3.031
97.4613 3.4107 3.2209
98.0746 3.3158 3.3158
98.0094 3.523 3.523
97.4034 3.4292 3.6168
96.1913 3.2416 3.8044
95.5852 3.1485 3.8976
92.555 3.1485 3.8976
89.5247 3.1485 3.8976
88.9187 3.2416 3.8044
87.7066 3.4292 3.6168
87.1005 3.523 3.523
87.7066 3.6168 3.4292
88.9187 3.8044 3.2416
89.5247 3.8976 3.1485
92.555 3.8976 3.1485
95.5852 3.8976 3.1485
96.1913 3.8044 3.2416
97.4034 3.6168 3.4292
98.0094 3.523 3.523
97.9443 3.7303 3.7303
97.3455 3.6376 3.8229
96.1478 3.4522 4.0083
95.549 3.3602 4.1003
92.555 3.3602 4.1003
89.5609 3.3602 4.1003
88.9621 3.4522 4.0083
87.7645 3.6376 3.8229
87.1656 3.7303 3.7303
87.7645 3.8229 3.6376
88.9621 4.0083 3.4522
89.5609 4.1003 3.3602
92.555 4.1003 3.3602
95.549 4.1003 3.3602
96.1478 4.0083 3.4522
97.3455 3.8229 3.6376
97.9443 3.7303 3.7303
97.8791 3.9375 3.9375
97.2876 3.8459 4.0291
96.1044 3.6628 4.2122
95.5128 3.5719 4.3031
92.555 3.5719 4.3031
89.5971 3.5719 4.3031
89.0055 3.6628 4.2122
87.8223 3.8459 4.0291
87.2308 3.9375 3.9375
87.8223 4.0291 3.8459
89.0055 4.2122 3.6628
89.5971 4.3031 3.5719
92.555 4.3031 3.5719
95.5128 4.3031 3.5719
96.1044 4.2122 3.6628
97.2876 4.0291 3.8459
97.8791 3.9375 3.9375
97.814 4.1447 4.1447
97.2297 4.0543 4.2352
96.061 3.8734 4.4161
95.4766 3.7836 4.5059
92.5549 3.7836 4.5059
89.6332 3.7836 4.5059
89.0489 3.8734 4.4161
87.8802 4.0543 4.2352
87.2959 4.1447 4.1447
87.8802 4.2352 4.0543
89.0489 4.4161 3.8734
89.6332 4.5059 3.7836
92.5549 4.5059 3.7836
95.4766 4.5059 3.7836
96.061 4.4161 3.8734
97.2297 4.2352 4.0543
97.814 4.1447 4.1447
97.7488 4.352 4.352
97.1717 4.2626 4.4413
96.0175 4.084 4.6199
95.4404 3.9953 4.7086
92.5549 3.9953 4.7086
89.6694 3.9953 4.7086
89.0923 4.084 4.6199
87.9381 4.2626 4.4413
87.361 4.352 4.352
87.9381 4.4413 4.2626
89.0923 4.6199 4.084
89.6694 4.7086 3.9953
92.5549 4.7086 3.9953
95.4404 4.7086 3.9953
96.0175 4.6199 4.084
97.1717 4.4413 4.2626
97.7488 4.352 4.352
97.6837 4.5592 4.5592
97.1138 4.471 4.6474
95.9741 4.2946 4.8238
95.4042 4.207 4.9114
92.5549 4.207 4.9114
89.7056 4.207 4.9114
89.1357 4.2946 4.8238
87.996 4.471 4.6474
87.4262 4.5592 4.5592
87.996 4.6474 4.471
89.1357 4.8238 4.2946
89.7056 4.9114 4.207
92.5549 4.9114 4.207
95.4042 4.9114 4.207
95.9741 4.8238 4.2946
97.1138 4.6474 4.471
97.6837 4.5592 4.5592
97.6186 4.7664 4.7664
97.0559 4.6794 4.8535
95.9307 4.5052 5.0277
95.368 4.4187 5.1142
92.5549 4.4187 5.1142
89.7418 4.4187 5.1142
89.1792 4.5052 5.0277
88.0539 4.6794 4.8535
87.4913 4.7664 4.7664
88.0539 4.8535 4.6794
89.1792 5.0277 4.5052
89.7418 5.1142 4.4187
92.5549 5.1142 4.4187
95.368 5.1142 4.4187
95.9307 5.0277 4.5052
97.0559 4.8535 4.6794
97.6186 4.7664 4.7664
97.5534 4.9737 4.9737
96.998 4.8877 5.0596
95.8872 4.7158 5.2316
95.3319 4.6304 5.3169
92.5549 4.6304 5.3169
89.778 4.6304 5.3169
89.2226 4.7158 5.2316
88.1118 4.8877 5.0596
87.5564 4.9737 4.9737
88.1118 5.0596 4.8877
89.2226 5.2316 4.7158
89.778 5.3169 4.6304
92.5549 5.3169 4.6304
95.3319 5.3169 4.6304
95.8872 5.2316 4.7158
96.998 5.0596 4.8877
97.5534 4.9737 4.9737
97.4883 5.1809 5.1809
96.9401 5.0961 5.2658
95.8438 4.9264 5.4355
95.2957 4.8421 5.5197
92.5549 4.8421 5.5197
89.8141 4.8421 5.5197
89.266 4.9264 5.4355
88.1697 5.0961 5.2658
87.6215 5.1809 5.1809
88.1697 5.2658 5.0961
89.266 5.4355 4.9264
89.8141 5.5197 4.8421
92.5549 5.5197 4.8421
95.2957 5.5197 4.8421
95.8438 5.4355 4.9264
96.9401 5.2658 5.0961
97.4883 5.1809 5.1809
97.4231 5.3882 5.3882
96.8822 5.3044 5.4719
95.8004 5.137 5.6393
95.2595 5.0539 5.7225
92.5549 5.0539 5.7225
89.8503 5.0539 5.7225
89.3094 5.137 5.6393
88.2276 5.3044 5.4719
87.6867 5.3882 5.3882
88.2276 5.4719 5.3044
89.3094 5.6393 5.137
89.8503 5.7225 5.0539
92.5549 5.7225 5.0539
95.2595 5.7225 5.0539
95.8004 5.6393 5.137
96.8822 5.4719 5.3044
97.4231 5.3882 5.3882
97.358 5.5954 5.5954
96.8243 5.5128 5.678
95.757 5.3476 5.8432
95.2233 5.2656 5.9252
92.5549 5.2656 5.9252
89.8865 5.2656 5.9252
89.3528 5.3476 5.8432
88.2855 5.5128 5.678
87.7518 5.5954 5.5954
88.2855 5.678 5.5128
89.3528 5.8432 5.3476
89.8865 5.9252 5.2656
92.5549 5.9252 5.2656
95.2233 5.9252 5.2656
95.757 5.8432 5.3476
96.8243 5.678 5.5128
97.358 5.5954 5.5954
97.2928 5.8026 5.8026
96.7664 5.7211 5.8841
95.7135 5.5582 6.0471
95.1871 5.4773 6.128
92.5549 5.4773 6.128
89.9227 5.4773 6.128
89.3962 5.5582 6.0471
88.3434 5.7211 5.8841
87.8169 5.8026 5.8026
88.3434 5.8841 5.7211
89.3962 6.0471 5.5582
89.9227 6.128 5.4773
92.5549 6.128 5.4773
95.1871 6.128 5.4773
95.7135 6.0471 5.5582
96.7664 5.8841 5.7211
97.2928 5.8026 5.8026
97.2277 6.0099 6.0099
96.7085 5.9295 6.0902
95.6701 5.7688 6.251
95.1509 5.689 6.3307
92.5549 5.689 6.3307
89.9589 5.689 6.3307
89.4397 5.7688 6.251
88.4013 5.9295 6.0902
87.882 6.0099 6.0099
88.4013 6.0902 5.9295
89.4397 6.251 5.7688
89.9589 6.3307 5.689
92.5549 6.3307 5.689
95.1509 6.3307 5.689
95.6701 6.251 5.7688
96.7085 6.0902 5.9295
97.2277 6.0099 6.0099
97.1625 6.2171 6.2171
96.6506 6.1379 6.2963
95.6266 5.9794 6.4548
95.1147 5.9007 6.5335
92.5549 5.9007 6.5335
89.995 5.9007 6.5335
89.4831 5.9794 6.4548
88.4591 6.1379 6.2963
87.9472 6.2171 6.2171
88.4591 6.2963 6.1379
89.4831 6.4548 5.9794
89.995 6.5335 5.9007
92.5549 6.5335 5.9007
95.1147 6.5335 5.9007
95.6266 6.4548 5.9794
96.6506 6.2963 6.1379
97.1625 6.2171 6.2171
97.0974 6.4243 6.4243
96.5927 6.3462 6.5025
95.5832 6.19 6.6587
95.0785 6.1124 6.7363
92.5549 6.1124 6.7363
90.0312 6.1124 6.7363
89.5265 6.19 6.6587
88.517 6.3462 6.5025
88.0123 6.4243 6.4243
88.517 6.5025 6.3462
89.5265 6.6587 6.19
90.0312 6.7363 6.1124
92.5549 6.7363 6.1124
95.0785 6.7363 6.1124
95.5832 6.6587 6.19
96.5927 6.5025 6.3462
97.0974 6.4243 6.4243
97.0323 6.6316 6.6316
96.5348 6.5546 6.7086
95.5398 6.4006 6.8626
95.0423 6.3241 6.939
92.5548 6.3241 6.939
90.0674 6.3241 6.939
89.5699 6.4006 6.8626
88.5749 6.5546 6.7086
88.0774 6.6316 6.6316
88.5749 6.7086 6.5546
89.5699 6.8626 6.4006
90.0674 6.939 6.3241
92.5548 6.939 6.3241
95.0423 6.939 6.3241
95.5398 6.8626 6.4006
96.5348 6.7086 6.5546
97.0323 6.6316 6.6316
96.9671 6.8388 6.8388
96.4769 6.7629 6.9147
95.4964 6.6112 7.0665
95.0061 6.5358 7.1418
92.5548 6.5358 7.1418
90.1036 6.5358 7.1418
89.6133 6.6112 7.0665
88.6328 6.7629 6.9147
88.1426 6.8388 6.8388
88.6328 6.9147 6.7629
89.6133 7.0665 6.6112
90.1036 7.1418 6.5358
92.5548 7.1418 6.5358
95.0061 7.1418 6.5358
95.4964 7.0665 6.6112
96.4769 6.9147 6.7629
96.9671 6.8388 6.8388
96.902 7.046 7.046
96.419 6.9713 7.1208
95.4529 6.8218 7.2703
94.9699 6.7475 7.3446
92.5548 6.7475 7.3446
90.1398 6.7475 7.3446
89.6567 6.8218 7.2703
88.6907 6.9713 7.1208
88.2077 7.046 7.046
88.6907 7.1208 6.9713
89.6567 7.2703 6.8218
90.1398 7.3446 6.7475
92.5548 7.3446 6.7475
94.9699 7.3446 6.7475
95.4529 7.2703 6.8218
96.419 7.1208 6.9713
96.902 7.046 7.046
96.8368 7.2533 7.2533
96.361 7.1796 7.3269
95.4095 7.0324 7.4742
94.9337 6.9592 7.5473
92.5548 6.9592 7.5473
90.1759 6.9592 7.5473
89.7002 7.0324 7.4742
88.7486 7.1796 7.3269
88.2728 7.2533 7.2533
88.7486 7.3269 7.1796
89.7002 7.4742 7.0324
90.1759 7.5473 6.9592
92.5548 7.5473 6.9592
94.9337 7.5473 6.9592
95.4095 7.4742 7.0324
96.361 7.3269 7.1796
96.8368 7.2533 7.2533
96.7717 7.4605 7.4605
96.3031 7.388 7.533
95.3661 7.243 7.6781
94.8975 7.171 7.7501
92.5548 7.171 7.7501
90.2121 7.171 7.7501
89.7436 7.243 7.6781
88.8065 7.388 7.533
88.338 7.4605 7.4605
88.8065 7.533 7.388
89.7436 7.6781 7.243
90.2121 7.7501 7.171
92.5548 7.7501 7.171
94.8975 7.7501 7.171
95.3661 7.6781 7.243
96.3031 7.533 7.388
96.7717 7.4605 7.4605
96.7065 7.6678 7.6678
96.2452 7.5964 7.7392
95.3226 7.4535 7.882
94.8613 7.3827 7.9529
92.5548 7.3827 7.9529
90.2483 7.3827 7.9529
89.787 7.4535 7.882
88.8644 7.5964 7.7392
88.4031 7.6678 7.6678
88.8644 7.7392 7.5964
89.787 7.882 7.4535
90.2483 7.9529 7.3827
92.5548 7.9529 7.3827
94.8613 7.9529 7.3827
95.3226 7.882 7.4535
96.2452 7.7392 7.5964
96.7065 7.6678 7.6678
96.6414 7.875 7.875
96.1873 7.8047 7.9453
95.2792 7.6641 8.0858
94.8251 7.5944 8.1556
92.5548 7.5944 8.1556
90.2845 7.5944 8.1556
89.8304 7.6641 8.0858
88.9223 7.8047 7.9453
88.4682 7.875 7.875
88.9223 7.9453 7.8047
89.8304 8.0858 7.6641
90.2845 8.1556 7.5944
92.5548 8.1556 7.5944
94.8251 8.1556 7.5944
95.2792 8.0858 7.6641
96.1873 7.9453 7.8047
96.6414 7.875 7.875
96.5762 8.0822 8.0822
96.1294 8.0131 8.1514
95.2358 7.8747 8.2897
94.7889 7.8061 8.3584
92.5548 7.8061 8.3584
90.3206 7.8061 8.3584
89.8738 7.8747 8.2897
88.9802 8.0131 8.1514
88.5333 8.0822 8.0822
88.9802 8.1514 8.0131
89.8738 8.2897 7.8747
90.3206 8.3584 7.8061
92.5548 8.3584 7.8061
94.7889 8.3584 7.8061
95.2358 8.2897 7.8747
96.1294 8.1514 8.0131
[...]
POINT_DATA 2917
SCALARS cp1 float
LOOKUP_TABLE default
-0.111388
-0.153714
-0.0814878
-0.0522719
-0.116593
-0.0795895
0.019062
-0.0307143
0.385106
0.995173
0.672292
0.247043
-0.0386929
0.0292743
0.00840022
-0.131736
-0.244254
-0.136155
-0.158856
-0.10075
-0.0787738
-0.104438
-0.0493218
0.0344281
0.110204
0.421469
0.865139
0.668018
0.317911
0.0163731
0.00602031
-0.0243874
-0.0932342
-0.110511
-0.152949
-0.17997
-0.113808
-0.0866827
-0.115299
-0.0462576
0.0626923
0.107754
0.425024
0.940226
0.723495
0.301315
-0.00782057
-0.00192038
-0.0511051
-0.083242
-0.0233535
-0.162086
-0.192366
-0.123211
-0.0953292
-0.118518
-0.0266106
0.0923572
0.117444
0.387962
0.937863
0.798229
0.352262
-0.0105609
-0.00742256
-0.0676853
-0.111737
-0.0463072
-0.16824
-0.200199
-0.130732
-0.103938
-0.117181
-0.00775276
0.110656
0.123303
0.358871
0.916194
0.85186
0.403573
-0.0109759
-0.015519
-0.0650369
-0.135531
-0.0932341
-0.169172
-0.204416
-0.137678
-0.1109
-0.113779
0.00232176
0.115158
0.128409
0.347476
0.883318
0.86102
0.432458
-0.00706622
-0.0240519
-0.060874
-0.141661
-0.113141
-0.17301
-0.206784
-0.14034
-0.115438
-0.110875
0.011487
0.120616
0.133926
0.343662
0.859111
0.85477
0.441324
-0.000785317
-0.0297984
-0.0631144
-0.13728
-0.108115
-0.179595
-0.206669
-0.13818
-0.117583
-0.108818
0.0197705
0.128275
0.139886
0.339475
0.839976
0.842597
0.442771
0.00884393
-0.0355604
-0.0723514
-0.13408
-0.104451
-0.184818
-0.204349
-0.136895
-0.120539
-0.107036
0.0235291
0.132239
0.144018
0.333519
0.824383
0.827364
0.438454
0.0196871
-0.0391696
-0.0809907
-0.132494
-0.10724
-0.189633
-0.201998
-0.141303
-0.126662
-0.102737
0.0276882
0.135038
0.147134
0.327641
0.811083
0.810071
0.431769
0.0318916
-0.0400113
-0.0881071
-0.131589
-0.10893
-0.192071
-0.199012
-0.144498
-0.129268
-0.0961242
0.0325147
0.137724
0.149453
0.322385
0.799663
0.795552
0.426876
0.0438108
-0.038015
-0.0947007
-0.13476
-0.110868
-0.187914
-0.195674
-0.142972
-0.126611
-0.0913334
0.0342005
0.138891
0.151059
0.318026
0.78982
0.783291
0.419519
0.0520423
-0.0283464
-0.0930438
-0.139954
-0.113405
-0.183882
-0.20056
-0.145769
-0.120757
-0.0861443
0.0349613
0.139385
0.153016
0.316041
0.782208
0.772559
0.410913
0.0589926
-0.0104354
-0.0839489
-0.147193
-0.119734
-0.186374
-0.208801
-0.14401
-0.110291
-0.0816162
0.034812
0.13977
0.155758
0.316184
0.777026
0.763911
0.402547
0.0640338
0.00856465
-0.0730724
-0.153061
-0.123545
-0.190828
-0.209625
-0.13034
-0.0980011
-0.0802733
0.0339884
0.140723
0.158746
0.316256
0.773425
0.758076
0.395507
0.0653396
0.0244733
-0.0569752
-0.149642
-0.118985
-0.191582
-0.20659
-0.120018
-0.0904342
-0.0794963
0.0344127
0.142713
0.161554
0.31595
0.770001
0.753944
0.390821
0.0645433
0.0333247
-0.0447439
-0.144483
-0.119969
-0.184685
-0.200945
-0.116308
-0.0887345
-0.0791624
0.0357721
0.145231
0.163266
0.313765
0.764607
0.751209
0.388644
0.0617145
0.0333012
-0.0401586
-0.13459
-0.108748
-0.17642
-0.196108
-0.115514
-0.0888125
-0.0787444
0.0377066
0.147469
0.163135
0.308365
0.756405
0.749322
0.388628
0.0589454
0.0308299
-0.0389687
-0.122389
-0.086193
-0.173656
-0.195387
-0.117099
-0.0891765
-0.0777347
0.0390962
0.147966
0.1621
0.30373
0.746536
0.743781
0.387223
0.057645
0.0292262
-0.0401044
-0.118605
-0.0804016
-0.174465
-0.196378
-0.117782
-0.0886583
-0.076703
0.0393289
0.14678
0.161038
0.301733
0.73737
0.735368
0.383904
0.0568063
0.0278867
-0.0412398
-0.118889
-0.0823334
-0.175037
-0.196855
-0.116935
-0.0872122
-0.0759346
0.0388642
0.14531
0.160368
0.300315
0.729863
0.727297
0.379913
0.0559663
0.0266643
-0.0427873
-0.119842
-0.0832911
-0.174386
-0.195846
-0.11525
-0.0858587
-0.0756454
0.0375606
0.143565
0.160508
0.299429
0.723884
0.718872
0.374408
0.0550055
0.0258574
-0.0435443
-0.119835
-0.0840108
-0.173836
-0.19479
-0.114147
-0.0850099
-0.0755967
0.036025
0.141889
0.161253
0.299814
0.719666
0.711432
0.369256
0.0541945
0.0249115
-0.0445758
-0.119551
-0.083666
-0.172597
-0.194003
-0.113696
-0.0845359
-0.0757474
0.0351673
0.141262
0.16146
0.299477
0.715843
0.706337
0.365922
0.0531161
0.0238457
-0.045575
-0.119662
-0.0834167
-0.171736
-0.194057
-0.113671
-0.0839576
-0.076001
0.0351865
0.14188
0.160304
0.297255
0.709972
0.700748
0.363096
0.0518093
0.0232436
-0.0462355
-0.120312
-0.0834878
-0.17141
-0.194679
-0.113859
-0.0833599
-0.0761766
0.0354977
0.142182
0.157239
0.293099
0.701612
0.693514
0.360442
0.0507263
0.0232861
-0.0461517
-0.12095
-0.083562
-0.171124
-0.194826
-0.113591
-0.0829035
-0.0762038
0.0352983
0.140489
0.152963
0.288845
0.694037
0.685549
0.356717
0.0496954
0.0237091
-0.045585
-0.121456
-0.0842743
-0.170563
-0.194106
-0.113101
-0.0829772
-0.0763404
0.0338581
0.136711
0.149867
0.289412
0.689963
0.676051
0.350234
0.0482512
0.023505
-0.0456995
-0.121531
-0.0848436
-0.170238
-0.192956
-0.112641
-0.0834336
-0.0768391
0.0318044
0.133159
0.148347
0.290988
0.688841
0.670049
0.344756
0.0462288
0.0221777
-0.0463581
-0.120737
-0.0844355
-0.169923
-0.192375
-0.113033
-0.0838404
-0.0773379
0.0295725
0.130422
0.147703
0.290265
0.687704
0.667189
0.341295
0.0440576
0.0201579
-0.0478387
-0.12012
-0.0838239
-0.168163
-0.19206
-0.113838
-0.0842143
-0.0777434
0.0272994
0.127864
0.148021
0.289828
0.685957
0.66522
0.339398
0.0418804
0.0176433
-0.0483707
-0.118721
-0.0802009
-0.169648
-0.192923
-0.112282
-0.0833267
-0.0782786
0.0257685
0.126701
0.1494
0.289729
0.684644
0.665197
0.339046
0.0398368
0.0172196
-0.0457207
-0.122684
-0.0873908
-0.180094
-0.199969
-0.11481
-0.0820201
-0.0777682
0.0248552
0.126846
0.151562
0.289473
0.683802
0.665097
0.338588
0.040261
0.0166221
-0.0546058
-0.144591
-0.117133
-0.179397
-0.205239
-0.132481
-0.0932161
-0.0786308
0.0252356
0.12799
0.154883
0.290543
0.685278
0.665553
0.339628
0.03958
-0.00214646
-0.0865493
-0.166298
-0.136369
-0.16873
-0.194396
-0.138327
-0.110147
-0.086246
0.0267876
0.13079
0.159449
0.292881
0.689692
0.669227
0.343724
0.0254916
-0.0434728
-0.114832
-0.161811
-0.128932
-0.161858
-0.182782
-0.120523
-0.108726
-0.0960077
0.027584
0.135874
0.165238
0.297236
0.69616
0.677849
0.347911
-0.00354288
-0.076841
-0.113583
-0.150067
-0.125711
-0.159302
-0.187485
-0.104078
-0.0863568
-0.0976459
0.0266961
0.1428
0.171207
0.300505
0.704008
0.696709
0.354275
-0.0303271
-0.0797455
-0.102285
-0.159344
-0.139588
-0.137244
-0.189656
-0.101247
-0.0678941
-0.0924433
0.0186933
0.144333
0.177385
0.317845
0.726439
0.703893
0.336814
-0.0466523
-0.068606
-0.112839
-0.170448
-0.128206
-0.142896
-0.191572
-0.10828
-0.0626055
-0.0787208
-0.00297196
0.0940406
0.160459
0.328538
0.634167
0.498106
0.17997
-0.0999996
-0.0926217
-0.137132
-0.151517
-0.0957573
-0.191199
-0.23677
-0.111129
-0.0257674
-0.0838515
-0.0698262
0.0169837
0.0425462
0.314489
0.615517
0.173849
-0.198623
-0.263909
-0.128419
-0.168855
-0.139549
-0.0757825
-0.271827
-0.245587
-0.125864
-0.0787852
-0.113296
-0.0814788
0.0314561
-0.0534181
0.301232
1.12019
0.878057
0.296312
-0.0254245
0.00999865
-0.0900499
-0.100048
0.00649398
-0.195342
-0.201013
-0.128489
-0.0999881
-0.105807
-0.04676
0.0433115
0.0827953
0.312077
0.889149
0.82207
0.402379
0.0462948
0.00143063
-0.076639
-0.116837
-0.0699878
-0.158879
-0.188373
-0.128438
-0.102978
-0.112871
-0.0375082
0.0698838
0.0807478
0.312199
0.919704
0.851145
0.388991
0.0288849
0.00939686
-0.0712993
-0.140422
-0.112027
-0.17144
-0.194862
-0.131374
-0.106585
-0.112798
-0.0216598
0.0826211
0.0871293
0.31078
0.895976
0.86059
0.418542
0.0284376
0.00124956
-0.0609811
-0.134845
-0.108298
-0.17677
-0.196184
-0.127044
-0.107646
-0.111697
-0.00984168
0.0919466
0.0941749
0.313395
0.886265
0.867599
0.435962
0.0308285
-0.00640341
-0.0606836
-0.129334
-0.10172
-0.178145
-0.194128
-0.126394
-0.114285
-0.112196
-0.00193749
0.098174
0.101812
0.312796
0.877751
0.861399
0.432522
0.0335673
-0.00608574
-0.062341
-0.126907
-0.096673
-0.180649
-0.193745
-0.136399
-0.126581
-0.110187
0.00337222
0.101236
0.110018
0.311111
0.868961
0.855902
0.429149
0.0374201
-0.00538433
-0.0663716
-0.129521
-0.0994441
-0.185377
-0.193319
-0.142804
-0.129448
-0.102355
0.00695603
0.103426
0.119937
0.310702
0.861203
0.853615
0.431232
0.0427666
-0.00587964
-0.0692653
-0.132205
-0.105388
-0.186345
-0.196417
-0.146873
-0.125002
-0.0954439
0.00627549
0.106003
0.133881
0.316565
0.859277
0.851022
0.428245
0.0458775
-0.00159821
-0.0629314
-0.129892
-0.111018
-0.18533
-0.202613
-0.146939
-0.116188
-0.0916895
0.00691098
0.114289
0.151178
0.323527
0.862519
0.854492
0.425962
0.0494134
0.0052291
-0.0629593
-0.130688
-0.101812
-0.184205
-0.201627
-0.132952
-0.103106
-0.0909982
0.0118863
0.129507
0.167588
0.325697
0.86279
0.862369
0.428328
0.0528801
0.0161706
-0.0599871
-0.136888
-0.103296
-0.179684
-0.195785
-0.123446
-0.099394
-0.091893
0.0210479
0.145084
0.175874
0.317383
0.851362
0.868443
0.435314
0.0533925
0.0205342
-0.0494925
-0.13279
-0.107661
-0.17319
-0.192303
-0.123713
-0.101211
-0.0905347
0.0304031
0.153944
0.175569
0.306271
0.827593
0.858827
0.438459
0.0562751
0.0195608
-0.0486931
-0.125393
-0.0951861
-0.171268
-0.191401
-0.123275
-0.100616
-0.0872904
0.036824
0.156819
0.171641
0.300889
0.802
0.835744
0.433154
0.0611303
0.0227301
-0.0495795
-0.124368
-0.0897146
-0.174914
-0.191834
-0.122756
-0.0999568
-0.083866
0.0402219
0.156253
0.164105
0.294305
0.77699
0.80766
0.422797
0.0652164
0.026564
-0.0481654
-0.12441
-0.0919012
-0.177902
-0.192788
-0.123537
-0.0988548
-0.079814
0.0410946
0.151323
0.152405
0.285355
0.751069
0.77433
0.407365
0.0679817
0.030413
-0.0470677
-0.124305
-0.0932047
-0.17786
-0.193489
-0.123619
-0.0957311
-0.0756825
0.037591
0.139758
0.139636
0.280383
0.729914
0.741816
0.389322
0.0685453
0.0346427
-0.0454845
-0.12368
-0.0916742
-0.178162
-0.194926
-0.121548
-0.0898762
-0.0728402
0.0308919
0.127311
0.130595
0.280908
0.716017
0.714164
0.37104
0.0661236
0.0388902
-0.0430089
-0.123429
-0.0904582
-0.177441
-0.195225
-0.116788
-0.0828528
-0.0724363
0.0233852
0.117699
0.124557
0.281636
0.707484
0.69433
0.355856
0.0605121
0.0411243
-0.0396835
-0.122021
-0.0882504
-0.175012
-0.193911
-0.112716
-0.0788441
-0.07441
0.0167232
0.110052
0.120312
0.281589
0.702468
0.682329
0.345235
0.0525443
0.0392153
-0.0373475
-0.118991
-0.084795
-0.171977
-0.192192
-0.111138
-0.078441
-0.0776115
0.0108857
0.103081
0.118763
0.282704
0.70069
0.675572
0.338099
0.0438062
0.0333386
-0.0378252
-0.116165
-0.0817867
-0.16952
-0.191187
-0.111415
-0.0798292
-0.0816245
0.00519946
0.0985748
0.123255
0.289752
0.70586
0.675263
0.333789
0.0354324
0.0253374
-0.0409317
-0.115172
-0.0808778
-0.169374
-0.190917
-0.112975
-0.0830464
-0.0861914
0.00271915
0.101168
0.132475
0.295938
0.715342
0.684491
0.335419
0.0286668
0.0163304
-0.0460194
-0.11643
-0.0833109
-0.169473
-0.190141
-0.115564
-0.0884778
-0.0904917
0.00438836
0.108464
0.141361
0.297623
0.722533
0.695973
0.341039
0.0245392
0.00767226
-0.0520436
-0.119059
-0.0871747
-0.16956
-0.190239
-0.119973
-0.0949601
-0.093086
0.00904649
0.116745
0.148979
0.30011
0.728688
0.705462
0.346832
0.0229495
0.000899423
-0.0576999
-0.122456
-0.0919867
-0.171524
-0.191186
-0.123725
-0.100042
-0.093635
0.0150073
0.124866
0.155296
0.301808
0.734432
0.715086
0.353025
0.0234837
-0.00349731
-0.0620439
-0.125071
-0.0947681
-0.173159
-0.191278
-0.125871
-0.103873
-0.0929252
0.0208849
0.132006
0.159862
0.301514
0.737396
0.72228
0.358521
0.0254165
-0.00553879
-0.0643206
-0.127936
-0.0994503
-0.176275
-0.192528
-0.127835
-0.106358
-0.0908653
0.0258898
0.136988
0.162687
0.30076
0.738433
0.726206
0.362297
0.028271
-0.00483699
-0.0640685
-0.133071
-0.108924
-0.183615
-0.197385
-0.129613
-0.105442
-0.0874269
0.0290678
0.139693
0.165435
0.301537
0.740222
0.72828
0.363875
0.0314292
-0.00216155
-0.0652121
-0.144729
-0.128341
-0.187814
-0.202231
-0.131414
-0.102485
-0.0838528
0.0306637
0.141807
0.170035
0.304687
0.745099
0.731595
0.364797
0.0342637
-0.000802792
-0.0713487
-0.155957
-0.137738
-0.181053
-0.201568
-0.13598
-0.104046
-0.0821835
0.032258
0.145253
0.177004
0.30941
0.753646
0.738946
0.367363
0.034664
-0.00733077
-0.0830208
-0.159384
-0.131489
-0.173082
-0.194349
-0.136739
-0.108979
-0.0832961
0.0353162
0.151444
0.185333
0.314413
0.763614
0.750436
0.373532
0.0306844
-0.0238749
-0.0966044
-0.157181
-0.12832
-0.170561
-0.185466
-0.130741
-0.111169
-0.0850085
0.0404979
0.160132
0.191584
0.315414
0.769454
0.763453
0.382996
0.0234175
-0.0416491
-0.101976
-0.146231
-0.117929
-0.166607
-0.18072
-0.125545
-0.109303
-0.0853481
0.0461057
0.167882
0.192555
0.311771
0.767487
0.772454
0.391235
0.0147656
-0.0519169
-0.100269
-0.140193
-0.117072
-0.160306
-0.180322
-0.116645
-0.0982059
-0.0841015
0.0483058
0.170698
0.18798
0.305123
0.757769
0.772532
0.391713
0.00417311
-0.0503987
-0.0932106
-0.145019
-0.125621
-0.15433
-0.186093
-0.110464
-0.0819199
-0.080275
0.0446719
0.165859
0.182335
0.302187
0.749151
0.766761
0.386201
-0.00575965
-0.0418482
-0.0853733
-0.153695
-0.129845
-0.148936
-0.190336
-0.105951
-0.0644615
-0.0741109
0.0339005
0.155165
0.18107
0.305308
0.74811
0.74664
0.361932
-0.0142376
-0.0338932
-0.0886222
-0.159121
-0.124219
-0.113491
-0.168968
-0.0807711
-0.0446042
-0.0647945
0.0171278
0.135898
0.180901
0.328942
0.762163
0.706539
0.305801
-0.0229333
-0.029487
-0.0939553
-0.137419
-0.0774339
-0.184833
-0.205127
-0.101274
-0.0597842
-0.0545974
0.0148578
0.102403
0.164267
0.317778
0.659647
0.548439
0.229416
-0.0220654
-0.0273403
-0.0766547
-0.0975992
-0.0548971
-0.356977
-0.329521
-0.162268
-0.0754029
-0.0636738
-0.00654288
0.0776395
0.0597465
0.257552
0.636929
0.352208
0.0288271
-0.0848456
-0.00712901
-0.049425
-0.0786246
-0.0735017
-6.90369
-3.38055
0.0411913
-0.15069
0.0190577
-0.0246493
-0.084353
-0.13289
-0.167845
-3.86446
-1.82761
0.0614336
-0.0809498
0.0143136
0.015512
-0.00041994
-0.0393577
-0.0568514
-0.907229
-0.567372
0.266348
0.0139282
0.0364273
0.0583825
0.0820992
0.00555372
0.0656236
-1.73615
-0.775934
0.0789642
-0.0596203
-0.0515562
-0.07887
-0.0879299
-0.346269
-0.6124
-2.48307
-1.07141
0.252034
-0.165214
-0.190979
-0.295278
-0.408518
-0.836854
-1.30191
-1.33766
-1.02749
-0.367089
-0.0777379
-0.0158425
0.0214406
0.0355299
0.0689875
0.0940251
-1.02
-0.64358
-0.0961158
-0.0457234
0.01177
0.0447938
0.0467545
0.0693375
0.0926447
-0.655441
-0.344727
0.0889565
0.0193405
0.037572
0.0682206
0.0807874
0.0601365
0.101048
-0.798154
-0.372383
0.0480145
-0.00730435
0.0207763
0.0289764
0.0330154
-0.125784
-0.312174
-0.987776
-0.439205
0.112528
-0.0357519
-0.00362316
-0.0374557
-0.0610849
-0.372039
-0.735181
1.42864
1.10622
0.778275
0.58649
0.435645
0.323049
0.255011
0.172943
0.0808441
0.0413189
0.0622304
0.0855994
0.0696508
0.0439332
0.0179881
-0.0243872
-0.0482384
-0.0452582
-0.0530679
-0.0601527
-0.0568114
-0.0780265
-0.101403
-0.0808243
-0.0471116
-0.0418752
-0.0643717
-0.0565951
-0.0315484
-0.0384886
-0.0596822
-0.0690672
-0.0628684
-0.0470818
-0.0374984
-0.0452776
-0.0352521
-0.0124525
-0.0227893
-0.0483167
-0.0628658
-0.054635
-0.032116
-0.0346265
-0.0470115
-0.0308917
-0.0107906
-0.0181524
-0.0353439
1.25103
0.913745
0.650749
0.49534
0.373703
0.278967
0.215273
0.148566
0.0724617
0.0339953
0.0453314
0.0637317
0.0546207
0.0326907
0.0114434
-0.0216607
-0.0482491
-0.05462
-0.0602613
-0.0616381
-0.0642364
-0.0836472
-0.0937896
-0.0720534
-0.0478521
-0.0492941
-0.0610644
-0.049267
-0.0343102
-0.0396646
-0.0548929
-0.0630267
-0.0587236
-0.0458508
-0.03564
-0.0368942
-0.0288646
-0.0170099
-0.026925
-0.0473866
-0.0563544
-0.0445451
-0.0309897
-0.0369246
-0.0419357
-0.0253481
-0.0130506
-0.0208925
-0.0340729
0.971808
0.735412
0.53265
0.413793
0.317498
0.236045
0.181731
0.129974
0.0573122
0.0150073
0.0273858
0.050598
0.0462964
0.0251772
0.00894766
-0.0196061
-0.0519955
-0.065033
-0.0673939
-0.0615866
-0.0684617
-0.0919882
-0.0922996
-0.0623315
-0.0430705
-0.0537845
-0.0598935
-0.0422093
-0.0314046
-0.0360947
-0.0511904
-0.0602237
-0.0568527
-0.0433935
-0.0302063
-0.0292802
-0.0222648
-0.0158416
-0.0278034
-0.0487793
-0.0533256
-0.0339157
-0.0262683
-0.0397763
-0.0400071
-0.0178069
-0.0103002
-0.0199358
-0.0266864
0.800859
0.621149
0.465073
0.363106
0.282176
0.209424
0.156823
0.11608
0.050739
0.0040874
0.0137658
0.0393181
0.0406639
0.0219691
0.00681375
-0.0171909
-0.0517643
-0.0717969
-0.0703606
-0.0605491
-0.0750073
-0.096728
-0.0832254
-0.0504361
-0.0425019
-0.0562926
-0.0511272
-0.0341865
-0.0280478
-0.0304572
-0.0460411
-0.0551478
-0.0522136
-0.0397229
-0.0238822
-0.0182049
-0.0139319
-0.0158306
-0.0286523
-0.0467812
-0.0442699
-0.0218156
-0.0246359
-0.0413083
-0.0320423
-0.00918077
-0.00864166
-0.0162251
-0.0155573
0.684641
0.539483
0.411066
0.3227
0.254061
0.188967
0.13682
0.103531
0.0471596
-0.00353677
0.00222298
0.0309748
0.0365555
0.0211026
0.00476487
-0.0179963
-0.0493584
-0.0702182
-0.0692062
-0.0641416
-0.0822634
-0.0948861
-0.0702971
-0.0407295
-0.0442728
-0.0531322
-0.0397325
-0.0278643
-0.0224241
-0.0235169
-0.0400904
-0.0487068
-0.0455431
-0.0348869
-0.015776
-0.0046845
-0.00576133
-0.0161197
-0.0288326
-0.0406557
-0.0313307
-0.0125457
-0.0241226
-0.0377753
-0.0210178
-0.00241312
-0.00564568
-0.0102006
-0.0089733
0.603405
0.480828
0.371317
0.29338
0.233196
0.174026
0.122062
0.0927207
0.0453807
-0.00772321
-0.00782292
0.0249842
0.0341301
0.0201798
0.00339115
-0.0186436
-0.0437743
-0.0621069
-0.0684536
-0.0735666
-0.0874747
-0.0865697
-0.0566862
-0.0352248
-0.0448607
-0.0446748
-0.0289447
-0.0217762
-0.0155415
-0.0160814
-0.0327283
-0.0412993
-0.0386105
-0.0295216
-0.00602709
0.00979127
0.00113365
-0.0173103
-0.0273505
-0.0297315
-0.0176309
-0.00777042
-0.0228316
-0.0291332
-0.0105215
0.00210335
-0.000457271
-0.00271906
-0.00296291
0.546263
0.439009
0.342556
0.272237
0.217578
0.163024
0.111916
0.0832336
0.0437697
-0.00827158
-0.0157162
0.0202345
0.0327917
0.017212
0.00290432
-0.0151851
-0.0354286
-0.0541026
-0.0713584
-0.0844858
-0.0889065
-0.0742665
-0.0445765
-0.0335983
-0.0420579
-0.0336896
-0.0203674
-0.0145081
-0.0080761
-0.00908912
-0.0251719
-0.0334506
-0.0317153
-0.0244416
0.00396864
0.024124
0.00693351
-0.0189361
-0.0238354
-0.0159981
-0.00577299
-0.00609603
-0.0194591
-0.0182614
-0.00241383
0.00612057
0.00673476
0.00529364
0.00510112
0.507676
0.410124
0.322332
0.257356
0.205853
0.155084
0.105987
0.0749645
0.0413185
-0.00573718
-0.0207833
0.0155631
0.0313585
0.0131836
0.0039953
-0.00780469
-0.0265299
-0.05001
-0.0767152
-0.0926765
-0.0878061
-0.0616954
-0.0357672
-0.0338667
-0.0362112
-0.0238973
-0.0144399
-0.00699649
-0.000720915
-0.00301883
-0.0187013
-0.0263176
-0.024868
-0.0199608
0.0128111
0.0374295
0.0117115
-0.0206508
-0.0192737
-0.00218437
0.0034673
-0.00593663
-0.0143144
-0.00799474
0.00327322
0.0105642
0.0141522
0.0118727
0.0103987
0.482325
0.391028
0.309059
0.247622
0.197588
0.150027
0.102954
0.0675091
0.0386345
-0.00071167
-0.0231483
0.0102401
0.0288836
0.0102791
0.00706472
-6.92935e-05
-0.0193252
-0.0485148
-0.0822297
-0.0983743
-0.0862786
-0.0505533
-0.0308443
-0.034371
-0.028813
-0.0170277
-0.00994312
-0.00125723
0.00558631
0.00249337
-0.013837
-0.0213724
-0.0196554
-0.0155218
0.0200368
0.0475586
0.0152384
-0.0218197
-0.0150518
0.00936905
0.0100677
-0.00646398
-0.00857134
-0.000405207
0.00658406
0.0154216
0.0199321
0.0158561
0.0119554
0.468524
0.381056
0.302928
0.242961
0.193226
0.147546
0.101954
0.0632984
0.03701
0.00487763
-0.0207158
0.0050692
0.0240779
0.00999255
0.00991475
0.00337766
-0.0161296
-0.0475018
-0.0842142
-0.099767
-0.0835669
-0.0438803
-0.029962
-0.034016
-0.0232699
-0.0137399
-0.00674839
0.00143927
0.00856529
0.00565434
-0.0102145
-0.0181818
-0.0169813
-0.0103474
0.0243158
0.0493255
0.0166939
-0.0194564
-0.0111055
0.0147062
0.0127109
-0.00578057
-0.00382341
0.00357894
0.0082344
0.0187658
0.0224392
0.0175753
0.0131289
0.464279
0.373537
0.293871
0.236578
0.188934
0.14567
0.0998855
0.0579673
0.0365142
0.00644245
-0.0311373
0.000974429
0.0280661
0.00859933
0.0141366
0.00846659
-0.0110599
-0.0451907
-0.0917316
-0.110112
-0.086866
-0.0323264
-0.0252949
-0.036784
-0.0192283
-0.0116265
-0.00423672
0.00347819
0.0131762
0.0111873
-0.00924411
-0.0186123
-0.0184529
-0.01287
0.0309423
0.0640145
0.0186798
-0.0283224
-0.0128595
0.0245102
0.0184333
-0.0097611
-0.00194461
0.00629832
0.00791302
0.0232796
0.0260257
0.0187556
0.0148226
-0.610364
-11.2476
-75.1356