TITLE = "AGPS 3D Finite Element Data"
VARIABLES = "x", "y", "z", "cp1"
ZONE T="MIXED", N=680, E=624, DATAPACKING=BLOCK, ZONETYPE=FEQUADRILATERAL
98.27 97.635 96.365 95.73 92.555 89.38 88.745 87.475 86.84 87.475 88.745 89.38 92.555 95.73 96.365 97.635 98.27 98.2049 97.5771 96.3216 95.6938 92.555 89.4162 88.7884 87.5329 86.9051 87.5329 88.7884 89.4162 92.555 95.6938 96.3216 97.5771 98.2049 98.1397 97.5192 96.2781 95.6576 92.555 89.4524 88.8318 87.5908 86.9703 87.5908 88.8318 89.4524 92.555 95.6576 96.2781 97.5192 98.1397 98.0746 97.4613 96.2347 95.6214 92.555 89.4885 88.8753 87.6487 87.0354 87.6487 88.8753 89.4885 92.555 95.6214 96.2347 97.4613 98.0746 98.0094 97.4034 96.1913 95.5852 92.555 89.5247 88.9187 87.7066 87.1005 87.7066 88.9187 89.5247 92.555 95.5852 96.1913 97.4034 98.0094 97.9443 97.3455 96.1478 95.549 92.555 89.5609 88.9621 87.7645 87.1656 87.7645 88.9621 89.5609 92.555 95.549 96.1478 97.3455 97.9443 97.8791 97.2876 96.1044 95.5128 92.555 89.5971 89.0055 87.8223 87.2308 87.8223 89.0055 89.5971 92.555 95.5128 96.1044 97.2876 97.8791 97.814 97.2297 96.061 95.4766 92.5549 89.6332 89.0489 87.8802 87.2959 87.8802 89.0489 89.6332 92.5549 95.4766 96.061 97.2297 97.814 97.7488 97.1717 96.0175 95.4404 92.5549 89.6694 89.0923 87.9381 87.361 87.9381 89.0923 89.6694 92.5549 95.4404 96.0175 97.1717 97.7488 97.6837 97.1138 95.9741 95.4042 92.5549 89.7056 89.1357 87.996 87.4262 87.996 89.1357 89.7056 92.5549 95.4042 95.9741 97.1138 97.6837 97.6186 97.0559 95.9307 95.368 92.5549 89.7418 89.1792 88.0539 87.4913 88.0539 89.1792 89.7418 92.5549 95.368 95.9307 97.0559 97.6186 97.5534 96.998 95.8872 95.3319 92.5549 89.778 89.2226 88.1118 87.5564 88.1118 89.2226 89.778 92.5549 95.3319 95.8872 96.998 97.5534 97.4883 96.9401 95.8438 95.2957 92.5549 89.8141 89.266 88.1697 87.6215 88.1697 89.266 89.8141 92.5549 95.2957 95.8438 96.9401 97.4883 97.4231 96.8822 95.8004 95.2595 92.5549 89.8503 89.3094 88.2276 87.6867 88.2276 89.3094 89.8503 92.5549 95.2595 95.8004 96.8822 97.4231 97.358 96.8243 95.757 95.2233 92.5549 89.8865 89.3528 88.2855 87.7518 88.2855 89.3528 89.8865 92.5549 95.2233 95.757 96.8243 97.358 97.2928 96.7664 95.7135 95.1871 92.5549 89.9227 89.3962 88.3434 87.8169 88.3434 89.3962 89.9227 92.5549 95.1871 95.7135 96.7664 97.2928 97.2277 96.7085 95.6701 95.1509 92.5549 89.9589 89.4397 88.4013 87.882 88.4013 89.4397 89.9589 92.5549 95.1509 95.6701 96.7085 97.2277 97.1625 96.6506 95.6266 95.1147 92.5549 89.995 89.4831 88.4591 87.9472 88.4591 89.4831 89.995 92.5549 95.1147 95.6266 96.6506 97.1625 97.0974 96.5927 95.5832 95.0785 92.5549 90.0312 89.5265 88.517 88.0123 88.517 89.5265 90.0312 92.5549 95.0785 95.5832 96.5927 97.0974 97.0323 96.5348 95.5398 95.0423 92.5548 90.0674 89.5699 88.5749 88.0774 88.5749 89.5699 90.0674 92.5548 95.0423 95.5398 96.5348 97.0323 96.9671 96.4769 95.4964 95.0061 92.5548 90.1036 89.6133 88.6328 88.1426 88.6328 89.6133 90.1036 92.5548 95.0061 95.4964 96.4769 96.9671 96.902 96.419 95.4529 94.9699 92.5548 90.1398 89.6567 88.6907 88.2077 88.6907 89.6567 90.1398 92.5548 94.9699 95.4529 96.419 96.902 96.8368 96.361 95.4095 94.9337 92.5548 90.1759 89.7002 88.7486 88.2728 88.7486 89.7002 90.1759 92.5548 94.9337 95.4095 96.361 96.8368 96.7717 96.3031 95.3661 94.8975 92.5548 90.2121 89.7436 88.8065 88.338 88.8065 89.7436 90.2121 92.5548 94.8975 95.3661 96.3031 96.7717 96.7065 96.2452 95.3226 94.8613 92.5548 90.2483 89.787 88.8644 88.4031 88.8644 89.787 90.2483 92.5548 94.8613 95.3226 96.2452 96.7065 96.6414 96.1873 95.2792 94.8251 92.5548 90.2845 89.8304 88.9223 88.4682 88.9223 89.8304 90.2845 92.5548 94.8251 95.2792 96.1873 96.6414 96.5762 96.1294 95.2358 94.7889 92.5548 90.3206 89.8738 88.9802 88.5333 88.9802 89.8738 90.3206 92.5548 94.7889 95.2358 96.1294 96.5762 96.5111 96.0715 95.1923 94.7527 92.5548 90.3568 89.9172 89.0381 88.5985 89.0381 89.9172 90.3568 92.5548 94.7527 95.1923 96.0715 96.5111 96.446 96.0136 95.1489 94.7165 92.5548 90.393 89.9606 89.0959 88.6636 89.0959 89.9606 90.393 92.5548 94.7165 95.1489 96.0136 96.446 96.3808 95.9557 95.1055 94.6803 92.5548 90.4292 90.0041 89.1538 88.7287 89.1538 90.0041 90.4292 92.5548 94.6803 95.1055 95.9557 96.3808 96.3157 95.8978 95.062 94.6441 92.5548 90.4654 90.0475 89.2117 88.7938 89.2117 90.0475 90.4654 92.5548 94.6441 95.062 95.8978 96.3157 96.2505 95.8399 95.0186 94.608 92.5547 90.5015 90.0909 89.2696 88.859 89.2696 90.0909 90.5015 92.5547 94.608 95.0186 95.8399 96.2505 96.1854 95.782 94.9752 94.5718 92.5547 90.5377 90.1343 89.3275 88.9241 89.3275 90.1343 90.5377 92.5547 94.5718 94.9752 95.782 96.1854 96.1202 95.7241 94.9317 94.5356 92.5547 90.5739 90.1777 89.3854 88.9892 89.3854 90.1777 90.5739 92.5547 94.5356 94.9317 95.7241 96.1202 96.0551 95.6662 94.8883 94.4994 92.5547 90.6101 90.2211 89.4433 89.0544 89.4433 90.2211 90.6101 92.5547 94.4994 94.8883 95.6662 96.0551 95.9899 95.6083 94.8449 94.4632 92.5547 90.6463 90.2646 89.5012 89.1195 89.5012 90.2646 90.6463 92.5547 94.4632 94.8449 95.6083 95.9899 95.9248 95.5503 94.8014 94.427 92.5547 90.6824 90.308 89.5591 89.1846 89.5591 90.308 90.6824 92.5547 94.427 94.8014 95.5503 95.9248 95.8597 95.4924 94.758 94.3908 92.5547 90.7186 90.3514 89.617 89.2497 89.617 90.3514 90.7186 92.5547 94.3908 94.758 95.4924 95.8597 95.7945 95.4345 94.7146 94.3546 92.5547 90.7548 90.3948 89.6749 89.3149 89.6749 90.3948 90.7548 92.5547 94.3546 94.7146 95.4345 95.7945 95.7294 95.3766 94.6711 94.3184 92.5547 90.791 90.4382 89.7327 89.38 89.7327 90.4382 90.791 92.5547 94.3184 94.6711 95.3766 95.7294
2.6941 2.5958 2.3992 2.3016 2.3016 2.3016 2.3992 2.5958 2.6941 2.7924 2.9889 3.0865 3.0865 3.0865 2.9889 2.7924 2.6941 2.9013 2.8041 2.6098 2.5133 2.5133 2.5133 2.6098 2.8041 2.9013 2.9985 3.1928 3.2893 3.2893 3.2893 3.1928 2.9985 2.9013 3.1086 3.0125 2.8204 2.7251 2.7251 2.7251 2.8204 3.0125 3.1086 3.2046 3.3967 3.492 3.492 3.492 3.3967 3.2046 3.1086 3.3158 3.2209 3.031 2.9368 2.9368 2.9368 3.031 3.2209 3.3158 3.4107 3.6006 3.6948 3.6948 3.6948 3.6006 3.4107 3.3158 3.523 3.4292 3.2416 3.1485 3.1485 3.1485 3.2416 3.4292 3.523 3.6168 3.8044 3.8976 3.8976 3.8976 3.8044 3.6168 3.523 3.7303 3.6376 3.4522 3.3602 3.3602 3.3602 3.4522 3.6376 3.7303 3.8229 4.0083 4.1003 4.1003 4.1003 4.0083 3.8229 3.7303 3.9375 3.8459 3.6628 3.5719 3.5719 3.5719 3.6628 3.8459 3.9375 4.0291 4.2122 4.3031 4.3031 4.3031 4.2122 4.0291 3.9375 4.1447 4.0543 3.8734 3.7836 3.7836 3.7836 3.8734 4.0543 4.1447 4.2352 4.4161 4.5059 4.5059 4.5059 4.4161 4.2352 4.1447 4.352 4.2626 4.084 3.9953 3.9953 3.9953 4.084 4.2626 4.352 4.4413 4.6199 4.7086 4.7086 4.7086 4.6199 4.4413 4.352 4.5592 4.471 4.2946 4.207 4.207 4.207 4.2946 4.471 4.5592 4.6474 4.8238 4.9114 4.9114 4.9114 4.8238 4.6474 4.5592 4.7664 4.6794 4.5052 4.4187 4.4187 4.4187 4.5052 4.6794 4.7664 4.8535 5.0277 5.1142 5.1142 5.1142 5.0277 4.8535 4.7664 4.9737 4.8877 4.7158 4.6304 4.6304 4.6304 4.7158 4.8877 4.9737 5.0596 5.2316 5.3169 5.3169 5.3169 5.2316 5.0596 4.9737 5.1809 5.0961 4.9264 4.8421 4.8421 4.8421 4.9264 5.0961 5.1809 5.2658 5.4355 5.5197 5.5197 5.5197 5.4355 5.2658 5.1809 5.3882 5.3044 5.137 5.0539 5.0539 5.0539 5.137 5.3044 5.3882 5.4719 5.6393 5.7225 5.7225 5.7225 5.6393 5.4719 5.3882 5.5954 5.5128 5.3476 5.2656 5.2656 5.2656 5.3476 5.5128 5.5954 5.678 5.8432 5.9252 5.9252 5.9252 5.8432 5.678 5.5954 5.8026 5.7211 5.5582 5.4773 5.4773 5.4773 5.5582 5.7211 5.8026 5.8841 6.0471 6.128 6.128 6.128 6.0471 5.8841 5.8026 6.0099 5.9295 5.7688 5.689 5.689 5.689 5.7688 5.9295 6.0099 6.0902 6.251 6.3307 6.3307 6.3307 6.251 6.0902 6.0099 6.2171 6.1379 5.9794 5.9007 5.9007 5.9007 5.9794 6.1379 6.2171 6.2963 6.4548 6.5335 6.5335 6.5335 6.4548 6.2963 6.2171 6.4243 6.3462 6.19 6.1124 6.1124 6.1124 6.19 6.3462 6.4243 6.5025 6.6587 6.7363 6.7363 6.7363 6.6587 6.5025 6.4243 6.6316 6.5546 6.4006 6.3241 6.3241 6.3241 6.4006 6.5546 6.6316 6.7086 6.8626 6.939 6.939 6.939 6.8626 6.7086 6.6316 6.8388 6.7629 6.6112 6.5358 6.5358 6.5358 6.6112 6.7629 6.8388 6.9147 7.0665 7.1418 7.1418 7.1418 7.0665 6.9147 6.8388 7.046 6.9713 6.8218 6.7475 6.7475 6.7475 6.8218 6.9713 7.046 7.1208 7.2703 7.3446 7.3446 7.3446 7.2703 7.1208 7.046 7.2533 7.1796 7.0324 6.9592 6.9592 6.9592 7.0324 7.1796 7.2533 7.3269 7.4742 7.5473 7.5473 7.5473 7.4742 7.3269 7.2533 7.4605 7.388 7.243 7.171 7.171 7.171 7.243 7.388 7.4605 7.533 7.6781 7.7501 7.7501 7.7501 7.6781 7.533 7.4605 7.6678 7.5964 7.4535 7.3827 7.3827 7.3827 7.4535 7.5964 7.6678 7.7392 7.882 7.9529 7.9529 7.9529 7.882 7.7392 7.6678 7.875 7.8047 7.6641 7.5944 7.5944 7.5944 7.6641 7.8047 7.875 7.9453 8.0858 8.1556 8.1556 8.1556 8.0858 7.9453 7.875 8.0822 8.0131 7.8747 7.8061 7.8061 7.8061 7.8747 8.0131 8.0822 8.1514 8.2897 8.3584 8.3584 8.3584 8.2897 8.1514 8.0822 8.2895 8.2214 8.0853 8.0178 8.0178 8.0178 8.0853 8.2214 8.2895 8.3575 8.4936 8.5611 8.5611 8.5611 8.4936 8.3575 8.2895 8.4967 8.4298 8.2959 8.2295 8.2295 8.2295 8.2959 8.4298 8.4967 8.5636 8.6975 8.7639 8.7639 8.7639 8.6975 8.5636 8.4967 8.7039 8.6381 8.5065 8.4412 8.4412 8.4412 8.5065 8.6381 8.7039 8.7697 8.9013 8.9667 8.9667 8.9667 8.9013 8.7697 8.7039 8.9112 8.8465 8.7171 8.6529 8.6529 8.6529 8.7171 8.8465 8.9112 8.9759 9.1052 9.1694 9.1694 9.1694 9.1052 8.9759 8.9112 9.1184 9.0549 8.9277 8.8646 8.8646 8.8646 8.9277 9.0549 9.1184 9.182 9.3091 9.3722 9.3722 9.3722 9.3091 9.182 9.1184 9.3257 9.2632 9.1383 9.0763 9.0763 9.0763 9.1383 9.2632 9.3257 9.3881 9.513 9.575 9.575 9.575 9.513 9.3881 9.3257 9.5329 9.4716 9.3489 9.288 9.288 9.288 9.3489 9.4716 9.5329 9.5942 9.7168 9.7777 9.7777 9.7777 9.7168 9.5942 9.5329 9.7401 9.6799 9.5595 9.4998 9.4998 9.4998 9.5595 9.6799 9.7401 9.8003 9.9207 9.9805 9.9805 9.9805 9.9207 9.8003 9.7401 9.9474 9.8883 9.7701 9.7115 9.7115 9.7115 9.7701 9.8883 9.9474 10.0064 10.1246 10.1833 10.1833 10.1833 10.1246 10.0064 9.9474 10.1546 10.0966 9.9807 9.9232 9.9232 9.9232 9.9807 10.0966 10.1546 10.2126 10.3285 10.386 10.386 10.386 10.3285 10.2126 10.1546 10.3618 10.305 10.1913 10.1349 10.1349 10.1349 10.1913 10.305 10.3618 10.4187 10.5324 10.5888 10.5888 10.5888 10.5324 10.4187 10.3618 10.5691 10.5134 10.4019 10.3466 10.3466 10.3466 10.4019 10.5134 10.5691 10.6248 10.7362 10.7915 10.7915 10.7915 10.7362 10.6248 10.5691 10.7763 10.7217 10.6125 10.5583 10.5583 10.5583 10.6125 10.7217 10.7763 10.8309 10.9401 10.9943 10.9943 10.9943 10.9401 10.8309 10.7763
2.6941 2.7924 2.9889 3.0865 3.0865 3.0865 2.9889 2.7924 2.6941 2.5958 2.3992 2.3016 2.3016 2.3016 2.3992 2.5958 2.6941 2.9013 2.9985 3.1928 3.2893 3.2893 3.2893 3.1928 2.9985 2.9013 2.8041 2.6098 2.5133 2.5133 2.5133 2.6098 2.8041 2.9013 3.1086 3.2046 3.3967 3.492 3.492 3.492 3.3967 3.2046 3.1086 3.0125 2.8204 2.7251 2.7251 2.7251 2.8204 3.0125 3.1086 3.3158 3.4107 3.6006 3.6948 3.6948 3.6948 3.6006 3.4107 3.3158 3.2209 3.031 2.9368 2.9368 2.9368 3.031 3.2209 3.3158 3.523 3.6168 3.8044 3.8976 3.8976 3.8976 3.8044 3.6168 3.523 3.4292 3.2416 3.1485 3.1485 3.1485 3.2416 3.4292 3.523 3.7303 3.8229 4.0083 4.1003 4.1003 4.1003 4.0083 3.8229 3.7303 3.6376 3.4522 3.3602 3.3602 3.3602 3.4522 3.6376 3.7303 3.9375 4.0291 4.2122 4.3031 4.3031 4.3031 4.2122 4.0291 3.9375 3.8459 3.6628 3.5719 3.5719 3.5719 3.6628 3.8459 3.9375 4.1447 4.2352 4.4161 4.5059 4.5059 4.5059 4.4161 4.2352 4.1447 4.0543 3.8734 3.7836 3.7836 3.7836 3.8734 4.0543 4.1447 4.352 4.4413 4.6199 4.7086 4.7086 4.7086 4.6199 4.4413 4.352 4.2626 4.084 3.9953 3.9953 3.9953 4.084 4.2626 4.352 4.5592 4.6474 4.8238 4.9114 4.9114 4.9114 4.8238 4.6474 4.5592 4.471 4.2946 4.207 4.207 4.207 4.2946 4.471 4.5592 4.7664 4.8535 5.0277 5.1142 5.1142 5.1142 5.0277 4.8535 4.7664 4.6794 4.5052 4.4187 4.4187 4.4187 4.5052 4.6794 4.7664 4.9737 5.0596 5.2316 5.3169 5.3169 5.3169 5.2316 5.0596 4.9737 4.8877 4.7158 4.6304 4.6304 4.6304 4.7158 4.8877 4.9737 5.1809 5.2658 5.4355 5.5197 5.5197 5.5197 5.4355 5.2658 5.1809 5.0961 4.9264 4.8421 4.8421 4.8421 4.9264 5.0961 5.1809 5.3882 5.4719 5.6393 5.7225 5.7225 5.7225 5.6393 5.4719 5.3882 5.3044 5.137 5.0539 5.0539 5.0539 5.137 5.3044 5.3882 5.5954 5.678 5.8432 5.9252 5.9252 5.9252 5.8432 5.678 5.5954 5.5128 5.3476 5.2656 5.2656 5.2656 5.3476 5.5128 5.5954 5.8026 5.8841 6.0471 6.128 6.128 6.128 6.0471 5.8841 5.8026 5.7211 5.5582 5.4773 5.4773 5.4773 5.5582 5.7211 5.8026 6.0099 6.0902 6.251 6.3307 6.3307 6.3307 6.251 6.0902 6.0099 5.9295 5.7688 5.689 5.689 5.689 5.7688 5.9295 6.0099 6.2171 6.2963 6.4548 6.5335 6.5335 6.5335 6.4548 6.2963 6.2171 6.1379 5.9794 5.9007 5.9007 5.9007 5.9794 6.1379 6.2171 6.4243 6.5025 6.6587 6.7363 6.7363 6.7363 6.6587 6.5025 6.4243 6.3462 6.19 6.1124 6.1124 6.1124 6.19 6.3462 6.4243 6.6316 6.7086 6.8626 6.939 6.939 6.939 6.8626 6.7086 6.6316 6.5546 6.4006 6.3241 6.3241 6.3241 6.4006 6.5546 6.6316 6.8388 6.9147 7.0665 7.1418 7.1418 7.1418 7.0665 6.9147 6.8388 6.7629 6.6112 6.5358 6.5358 6.5358 6.6112 6.7629 6.8388 7.046 7.1208 7.2703 7.3446 7.3446 7.3446 7.2703 7.1208 7.046 6.9713 6.8218 6.7475 6.7475 6.7475 6.8218 6.9713 7.046 7.2533 7.3269 7.4742 7.5473 7.5473 7.5473 7.4742 7.3269 7.2533 7.1796 7.0324 6.9592 6.9592 6.9592 7.0324 7.1796 7.2533 7.4605 7.533 7.6781 7.7501 7.7501 7.7501 7.6781 7.533 7.4605 7.388 7.243 7.171 7.171 7.171 7.243 7.388 7.4605 7.6678 7.7392 7.882 7.9529 7.9529 7.9529 7.882 7.7392 7.6678 7.5964 7.4535 7.3827 7.3827 7.3827 7.4535 7.5964 7.6678 7.875 7.9453 8.0858 8.1556 8.1556 8.1556 8.0858 7.9453 7.875 7.8047 7.6641 7.5944 7.5944 7.5944 7.6641 7.8047 7.875 8.0822 8.1514 8.2897 8.3584 8.3584 8.3584 8.2897 8.1514 8.0822 8.0131 7.8747 7.8061 7.8061 7.8061 7.8747 8.0131 8.0822 8.2895 8.3575 8.4936 8.5611 8.5611 8.5611 8.4936 8.3575 8.2895 8.2214 8.0853 8.0178 8.0178 8.0178 8.0853 8.2214 8.2895 8.4967 8.5636 8.6975 8.7639 8.7639 8.7639 8.6975 8.5636 8.4967 8.4298 8.2959 8.2295 8.2295 8.2295 8.2959 8.4298 8.4967 8.7039 8.7697 8.9013 8.9667 8.9667 8.9667 8.9013 8.7697 8.7039 8.6381 8.5065 8.4412 8.4412 8.4412 8.5065 8.6381 8.7039 8.9112 8.9759 9.1052 9.1694 9.1694 9.1694 9.1052 8.9759 8.9112 8.8465 8.7171 8.6529 8.6529 8.6529 8.7171 8.8465 8.9112 9.1184 9.182 9.3091 9.3722 9.3722 9.3722 9.3091 9.182 9.1184 9.0549 8.9277 8.8646 8.8646 8.8646 8.9277 9.0549 9.1184 9.3257 9.3881 9.513 9.575 9.575 9.575 9.513 9.3881 9.3257 9.2632 9.1383 9.0763 9.0763 9.0763 9.1383 9.2632 9.3257 9.5329 9.5942 9.7168 9.7777 9.7777 9.7777 9.7168 9.5942 9.5329 9.4716 9.3489 9.288 9.288 9.288 9.3489 9.4716 9.5329 9.7401 9.8003 9.9207 9.9805 9.9805 9.9805 9.9207 9.8003 9.7401 9.6799 9.5595 9.4998 9.4998 9.4998 9.5595 9.6799 9.7401 9.9474 10.0064 10.1246 10.1833 10.1833 10.1833 10.1246 10.0064 9.9474 9.8883 9.7701 9.7115 9.7115 9.7115 9.7701 9.8883 9.9474 10.1546 10.2126 10.3285 10.386 10.386 10.386 10.3285 10.2126 10.1546 10.0966 9.9807 9.9232 9.9232 9.9232 9.9807 10.0966 10.1546 10.3618 10.4187 10.5324 10.5888 10.5888 10.5888 10.5324 10.4187 10.3618 10.305 10.1913 10.1349 10.1349 10.1349 10.1913 10.305 10.3618 10.5691 10.6248 10.7362 10.7915 10.7915 10.7915 10.7362 10.6248 10.5691 10.5134 10.4019 10.3466 10.3466 10.3466 10.4019 10.5134 10.5691 10.7763 10.8309 10.9401 10.9943 10.9943 10.9943 10.9401 10.8309 10.7763 10.7217 10.6125 10.5583 10.5583 10.5583 10.6125 10.7217 10.7763
-0.185296 -0.1845 -0.0980264 -0.0534846 -0.0579815 0.029397 0.168696 0.216837 0.256774 0.480073 0.344776 0.118751 -0.0320539 -0.0351891 -0.0875518 -0.175894 -0.185335 -0.156018 -0.164952 -0.103942 -0.0679442 -0.0458756 0.0573046 0.177004 0.250118 0.277199 0.443432 0.346962 0.158257 -0.00942954 -0.0465341 -0.090838 -0.155945 -0.15177 -0.137862 -0.166005 -0.10944 -0.0664755 -0.0565116 0.05335 0.207453 0.268371 0.273877 0.480322 0.384809 0.14871 -0.0230244 -0.0407127 -0.0939148 -0.15459 -0.128445 -0.143364 -0.173912 -0.114027 -0.0693643 -0.060271 0.0698738 0.233972 0.275336 0.25724 0.481041 0.42034 0.173134 -0.0266208 -0.0417638 -0.0952293 -0.159543 -0.12877 -0.146828 -0.178591 -0.11402 -0.0726145 -0.0606978 0.085397 0.246201 0.275736 0.252528 0.47302 0.438457 0.19753 -0.0266872 -0.0460556 -0.0927323 -0.162228 -0.131226 -0.145226 -0.17977 -0.111981 -0.0738948 -0.0599596 0.0956291 0.251826 0.275173 0.251027 0.463721 0.440434 0.208814 -0.0245567 -0.0479749 -0.0906826 -0.162178 -0.129776 -0.149822 -0.180596 -0.107013 -0.0721644 -0.0594502 0.101057 0.256318 0.276779 0.250904 0.458761 0.439358 0.212174 -0.0221692 -0.0484796 -0.0900107 -0.161935 -0.130627 -0.154771 -0.180072 -0.106166 -0.0738165 -0.0585155 0.102192 0.256277 0.278035 0.250094 0.455109 0.434786 0.210809 -0.0191578 -0.0488093 -0.0901139 -0.161087 -0.134005 -0.153617 -0.176571 -0.112143 -0.0815091 -0.0554802 0.104879 0.255924 0.279576 0.249407 0.452404 0.429475 0.209528 -0.0147864 -0.0522397 -0.0940595 -0.159079 -0.134678 -0.154589 -0.170646 -0.113013 -0.0859881 -0.0520538 0.107215 0.256175 0.281109 0.248837 0.450396 0.425895 0.209669 -0.0101971 -0.05601 -0.0977608 -0.156434 -0.135612 -0.154788 -0.169815 -0.116116 -0.0868081 -0.0487583 0.10737 0.256418 0.282432 0.248374 0.448571 0.422838 0.207629 -0.00669802 -0.0546674 -0.0979511 -0.155142 -0.136731 -0.148067 -0.176234 -0.124384 -0.0835315 -0.0441211 0.107239 0.257016 0.283607 0.248078 0.446938 0.420702 0.20524 -0.0026078 -0.0482917 -0.0999563 -0.158888 -0.132117 -0.152197 -0.182967 -0.118504 -0.0719658 -0.0410352 0.106474 0.257626 0.284605 0.247918 0.445396 0.419036 0.202929 0.000744458 -0.0362578 -0.0953665 -0.16498 -0.131906 -0.165691 -0.186382 -0.107412 -0.0627081 -0.0402256 0.106304 0.258291 0.285492 0.247763 0.444011 0.417691 0.201138 0.00107429 -0.0272067 -0.0855483 -0.168481 -0.143267 -0.160372 -0.180717 -0.101892 -0.0611527 -0.0406026 0.106624 0.25889 0.286293 0.247558 0.442797 0.416536 0.200091 -0.000325656 -0.0257396 -0.0790024 -0.162809 -0.140446 -0.148609 -0.173839 -0.100593 -0.0617484 -0.0409825 0.106932 0.25942 0.286976 0.247276 0.441652 0.415484 0.199329 -0.00145043 -0.0268049 -0.0773272 -0.15474 -0.127094 -0.144682 -0.17228 -0.10229 -0.062418 -0.0407389 0.10739 0.259978 0.287586 0.246981 0.440629 0.414643 0.198795 -0.0019107 -0.0280374 -0.0792341 -0.152676 -0.122618 -0.144972 -0.172572 -0.102643 -0.0621887 -0.0404038 0.107768 0.260492 0.288169 0.246966 0.439764 0.413888 0.198292 -0.00229049 -0.0286268 -0.080189 -0.152805 -0.12256 -0.147167 -0.173477 -0.102454 -0.0618154 -0.0401824 0.108059 0.260849 0.288668 0.247021 0.438946 0.413031 0.197752 -0.00265127 -0.0289567 -0.0805939 -0.153551 -0.12395 -0.146261 -0.173054 -0.102091 -0.0616393 -0.0400329 0.108278 0.261136 0.289123 0.24701 0.43822 0.412192 0.197178 -0.0029805 -0.0292995 -0.0807489 -0.153583 -0.123929 -0.146134 -0.172979 -0.102014 -0.0614752 -0.0398913 0.108522 0.261499 0.289553 0.246984 0.437581 0.411579 0.196744 -0.00326611 -0.029633 -0.08105 -0.153628 -0.123892 -0.145871 -0.172876 -0.101904 -0.0612889 -0.0397604 0.108762 0.261853 0.289909 0.246845 0.436932 0.411071 0.196417 -0.00351694 -0.0299179 -0.0812976 -0.153552 -0.123555 -0.145484 -0.172753 -0.101858 -0.0611337 -0.0396204 0.108928 0.262073 0.290237 0.246744 0.436347 0.410466 0.196042 -0.0037111 -0.0301397 -0.0815134 -0.153521 -0.123292 -0.145244 -0.172671 -0.101807 -0.060997 -0.0394777 0.109007 0.262207 0.290644 0.246863 0.435962 0.409836 0.195593 -0.00388702 -0.0303449 -0.0816709 -0.153655 -0.123525 -0.145145 -0.172603 -0.101705 -0.0608647 -0.0393555 0.10905 0.262247 0.291001 0.247058 0.435597 0.409148 0.195135 -0.00405414 -0.0305266 -0.0817855 -0.15379 -0.123792 -0.144923 -0.172512 -0.101639 -0.0607632 -0.0392408 0.109198 0.262375 0.291289 0.247164 0.435212 0.408587 0.194813 -0.00418813 -0.0306856 -0.0819085 -0.153779 -0.123645 -0.144512 -0.172381 -0.101608 -0.0606722 -0.0391444 0.109388 0.262598 0.291617 0.247306 0.43496 0.408154 0.194532 -0.00431824 -0.0308398 -0.0820809 -0.15373 -0.123366 -0.144289 -0.172362 -0.101766 -0.0606341 -0.039054 0.109515 0.262738 0.291898 0.24749 0.434715 0.40767 0.194187 -0.00446719 -0.0310509 -0.0823771 -0.153708 -0.123119 -0.142619 -0.171665 -0.101702 -0.0607035 -0.0389951 0.109693 0.262861 0.292084 0.247604 0.434394 0.407293 0.193981 -0.00463405 -0.0312712 -0.0822834 -0.153127 -0.121763 -0.142924 -0.171501 -0.100724 -0.0605588 -0.0389911 0.109838 0.262853 0.292182 0.247743 0.433995 0.40688 0.193848 -0.00481175 -0.0312285 -0.0810293 -0.153508 -0.123105 -0.149167 -0.174654 -0.0994117 -0.0595187 -0.0387202 0.109818 0.26269 0.292293 0.247971 0.433651 0.406377 0.193605 -0.00466082 -0.030335 -0.080253 -0.159768 -0.135534 -0.160326 -0.183874 -0.104915 -0.0597933 -0.0374282 0.109959 0.26259 0.292531 0.248287 0.433503 0.40596 0.193607 -0.00338346 -0.0313671 -0.0879064 -0.171562 -0.147961 -0.160091 -0.189152 -0.121852 -0.0708524 -0.0375911 0.110974 0.262607 0.292759 0.248473 0.43332 0.405607 0.19456 -0.00386881 -0.0444353 -0.107812 -0.178236 -0.147109 -0.150723 -0.179127 -0.129485 -0.0875719 -0.0432311 0.112503 0.262855 0.292918 0.248673 0.433041 0.405584 0.19645 -0.0109225 -0.0660589 -0.120248 -0.170197 -0.140148 -0.143398 -0.167538 -0.122594 -0.0962003 -0.0529079 0.113663 0.263985 0.293008 0.248986 0.432693 0.406794 0.198119 -0.0239846 -0.0809529 -0.116454 -0.158802 -0.134315 -0.142685 -0.167729 -0.108207 -0.0870059 -0.0615752 0.111492 0.266226 0.293393 0.249373 0.432524 0.409503 0.196235 -0.0379064 -0.0777671 -0.102981 -0.15883 -0.134713 -0.141757 -0.175283 -0.10142 -0.0682327 -0.0641597 0.103869 0.266587 0.295101 0.249513 0.434241 0.411724 0.188831 -0.0460742 -0.0625443 -0.0971546 -0.170819 -0.144462 -0.112898 -0.168259 -0.106547 -0.0575821 -0.0635158 0.0826282 0.257945 0.304696 0.269566 0.448247 0.403384 0.162254 -0.0508727 -0.0534508 -0.105538 -0.164821 -0.117075 -0.0849838 -0.134368 -0.0909102 -0.0468061 -0.056534 0.0414235 0.180145 0.266013 0.269034 0.388247 0.28618 0.0898599 -0.0569954 -0.0489583 -0.0925124 -0.120845 -0.0722038 -0.0734393 -0.119161 -0.0622118 -0.00790494 -0.0725965 -0.0637089 0.0655674 0.19079 0.231964 0.333819 0.109934 -0.086127 -0.104677 -0.0233016 -0.0648242 -0.0884748 -0.0486929
1 18 19 2
2 19 20 3
3 20 21 4
4 21 22 5
5 22 23 6
6 23 24 7
7 24 25 8
8 25 26 9
9 26 27 10
10 27 28 11
11 28 29 12
12 29 30 13
13 30 31 14
14 31 32 15
15 32 33 16
16 33 34 17
18 35 36 19
19 36 37 20
20 37 38 21
21 38 39 22
22 39 40 23
23 40 41 24
24 41 42 25
25 42 43 26
26 43 44 27
27 44 45 28
28 45 46 29
29 46 47 30
30 47 48 31
31 48 49 32
32 49 50 33
33 50 51 34
35 52 53 36
36 53 54 37
37 54 55 38
38 55 56 39
39 56 57 40
40 57 58 41
41 58 59 42
42 59 60 43
43 60 61 44
44 61 62 45
45 62 63 46
46 63 64 47
47 64 65 48
48 65 66 49
49 66 67 50
50 67 68 51
52 69 70 53
53 70 71 54
54 71 72 55
55 72 73 56
56 73 74 57
57 74 75 58
58 75 76 59
59 76 77 60
60 77 78 61
61 78 79 62
62 79 80 63
63 80 81 64
64 81 82 65
65 82 83 66
66 83 84 67
67 84 85 68
69 86 87 70
70 87 88 71
71 88 89 72
72 89 90 73
73 90 91 74
74 91 92 75
75 92 93 76
76 93 94 77
77 94 95 78
78 95 96 79
79 96 97 80
80 97 98 81
81 98 99 82
82 99 100 83
83 100 101 84
84 101 102 85
86 103 104 87
87 104 105 88
88 105 106 89
89 106 107 90
90 107 108 91
91 108 109 92
92 109 110 93
93 110 111 94
94 111 112 95
95 112 113 96
96 113 114 97
97 114 115 98
98 115 116 99
99 116 117 100
100 117 118 101
101 118 119 102
103 120 121 104
104 121 122 105
105 122 123 106
106 123 124 107
107 124 125 108
108 125 126 109
109 126 127 110
110 127 128 111
111 128 129 112
112 129 130 113
113 130 131 114
114 131 132 115
115 132 133 116
116 133 134 117
117 134 135 118
118 135 136 119
120 137 138 121
121 138 139 122
122 139 140 123
123 140 141 124
124 141 142 125
125 142 143 126
126 143 144 127
127 144 145 128
128 145 146 129
129 146 147 130
130 147 148 131
131 148 149 132
132 149 150 133
133 150 151 134
134 151 152 135
135 152 153 136
137 154 155 138
138 155 156 139
139 156 157 140
140 157 158 141
141 158 159 142
142 159 160 143
143 160 161 144
144 161 162 145
145 162 163 146
146 163 164 147
147 164 165 148
148 165 166 149
149 166 167 150
150 167 168 151
151 168 169 152
152 169 170 153
154 171 172 155
155 172 173 156
156 173 174 157
157 174 175 158
158 175 176 159
159 176 177 160
160 177 178 161
161 178 179 162
162 179 180 163
163 180 181 164
164 181 182 165
165 182 183 166
166 183 184 167
167 184 185 168
168 185 186 169
169 186 187 170
171 188 189 172
172 189 190 173
173 190 191 174
174 191 192 175
175 192 193 176
176 193 194 177
177 194 195 178
178 195 196 179
179 196 197 180
180 197 198 181
181 198 199 182
182 199 200 183
183 200 201 184
184 201 202 185
185 202 203 186
186 203 204 187
188 205 206 189
189 206 207 190
190 207 208 191
191 208 209 192
192 209 210 193
193 210 211 194
194 211 212 195
195 212 213 196
196 213 214 197
197 214 215 198
198 215 216 199
199 216 217 200
200 217 218 201
201 218 219 202
202 219 220 203
203 220 221 204
205 222 223 206
206 223 224 207
207 224 225 208
208 225 226 209
209 226 227 210
210 227 228 211
211 228 229 212
212 229 230 213
213 230 231 214
214 231 232 215
215 232 233 216
216 233 234 217
217 234 235 218
218 235 236 219
219 236 237 220
220 237 238 221
222 239 240 223
223 240 241 224
224 241 242 225
225 242 243 226
226 243 244 227
227 244 245 228
228 245 246 229
229 246 247 230
230 247 248 231
231 248 249 232
232 249 250 233
233 250 251 234
234 251 252 235
235 252 253 236
236 253 254 237
237 254 255 238
239 256 257 240
240 257 258 241
241 258 259 242
242 259 260 243
243 260 261 244
244 261 262 245
245 262 263 246
246 263 264 247
247 264 265 248
248 265 266 249
249 266 267 250
250 267 268 251
251 268 269 252
252 269 270 253
253 270 271 254
254 271 272 255
256 273 274 257
257 274 275 258
258 275 276 259
259 276 277 260
260 277 278 261
261 278 279 262
262 279 280 263
263 280 281 264
264 281 282 265
265 282 283 266
266 283 284 267
267 284 285 268
268 285 286 269
269 286 287 270
270 287 288 271
271 288 289 272
273 290 291 274
274 291 292 275
275 292 293 276
276 293 294 277
277 294 295 278
278 295 296 279
279 296 297 280
280 297 298 281
281 298 299 282
282 299 300 283
283 300 301 284
284 301 302 285
285 302 303 286
286 303 304 287
287 304 305 288
288 305 306 289
290 307 308 291
291 308 309 292
292 309 310 293
293 310 311 294
294 311 312 295
295 312 313 296
296 313 314 297
297 314 315 298
298 315 316 299
299 316 317 300
300 317 318 301
301 318 319 302
302 319 320 303
303 320 321 304
304 321 322 305
305 322 323 306
307 324 325 308
308 325 326 309
309 326 327 310
310 327 328 311
311 328 329 312
312 329 330 313
313 330 331 314
314 331 332 315
315 332 333 316
316 333 334 317
317 334 335 318
318 335 336 319
319 336 337 320
320 337 338 321
321 338 339 322
322 339 340 323
324 341 342 325
325 342 343 326
326 343 344 327
327 344 345 328
328 345 346 329
329 346 347 330
330 347 348 331
331 348 349 332
332 349 350 333
333 350 351 334
334 351 352 335
335 352 353 336
336 353 354 337
337 354 355 338
338 355 356 339
339 356 357 340
341 358 359 342
342 359 360 343
343 360 361 344
344 361 362 345
345 362 363 346
346 363 364 347
347 364 365 348
348 365 366 349
349 366 367 350
350 367 368 351
351 368 369 352
352 369 370 353
353 370 371 354
354 371 372 355
355 372 373 356
356 373 374 357
358 375 376 359
359 376 377 360
360 377 378 361
361 378 379 362
362 379 380 363
363 380 381 364
364 381 382 365
365 382 383 366
366 383 384 367
367 384 385 368
368 385 386 369
369 386 387 370
370 387 388 371
371 388 389 372
372 389 390 373
373 390 391 374
375 392 393 376
376 393 394 377
377 394 395 378
378 395 396 379
379 396 397 380
380 397 398 381
381 398 399 382
382 399 400 383
383 400 401 384
384 401 402 385
385 402 403 386
386 403 404 387
387 404 405 388
388 405 406 389
389 406 407 390
390 407 408 391
392 409 410 393
393 410 411 394
394 411 412 395
395 412 413 396
396 413 414 397
397 414 415 398
398 415 416 399
399 416 417 400
400 417 418 401
401 418 419 402
402 419 420 403
403 420 421 404
404 421 422 405
405 422 423 406
406 423 424 407
407 424 425 408
409 426 427 410
410 427 428 411
411 428 429 412
412 429 430 413
413 430 431 414
414 431 432 415
415 432 433 416
416 433 434 417
417 434 435 418
418 435 436 419
419 436 437 420
420 437 438 421
421 438 439 422
422 439 440 423
423 440 441 424
424 441 442 425
426 443 444 427
427 444 445 428
428 445 446 429
429 446 447 430
430 447 448 431
431 448 449 432
432 449 450 433
433 450 451 434
434 451 452 435
435 452 453 436
436 453 454 437
437 454 455 438
438 455 456 439
439 456 457 440
440 457 458 441
441 458 459 442
443 460 461 444
444 461 462 445
445 462 463 446
446 463 464 447
447 464 465 448
448 465 466 449
449 466 467 450
450 467 468 451
451 468 469 452
452 469 470 453
453 470 471 454
454 471 472 455
455 472 473 456
456 473 474 457
457 474 475 458
458 475 476 459
460 477 478 461
461 478 479 462
462 479 480 463
463 480 481 464
464 481 482 465
465 482 483 466
466 483 484 467
467 484 485 468
468 485 486 469
469 486 487 470
470 487 488 471
471 488 489 472
472 489 490 473
473 490 491 474
474 491 492 475
475 492 493 476
477 494 495 478
478 495 496 479
479 496 497 480
480 497 498 481
481 498 499 482
482 499 500 483
483 500 501 484
484 501 502 485
485 502 503 486
486 503 504 487
487 504 505 488
488 505 506 489
489 506 507 490
490 507 508 491
491 508 509 492
492 509 510 493
494 511 512 495
495 512 513 496
496 513 514 497
497 514 515 498
498 515 516 499
499 516 517 500
500 517 518 501
501 518 519 502
502 519 520 503
503 520 521 504
504 521 522 505
505 522 523 506
506 523 524 507
507 524 525 508
508 525 526 509
509 526 527 510
511 528 529 512
512 529 530 513
513 530 531 514
514 531 532 515
515 532 533 516
516 533 534 517
517 534 535 518
518 535 536 519
519 536 537 520
520 537 538 521
521 538 539 522
522 539 540 523
523 540 541 524
524 541 542 525
525 542 543 526
526 543 544 527
528 545 546 529
529 546 547 530
530 547 548 531
531 548 549 532
532 549 550 533
533 550 551 534
534 551 552 535
535 552 553 536
536 553 554 537
537 554 555 538
538 555 556 539
539 556 557 540
540 557 558 541
541 558 559 542
542 559 560 543
543 560 561 544
545 562 563 546
546 563 564 547
547 564 565 548
548 565 566 549
549 566 567 550
550 567 568 551
551 568 569 552
552 569 570 553
553 570 571 554
554 571 572 555
555 572 573 556
556 573 574 557
557 574 575 558
558 575 576 559
559 576 577 560
560 577 578 561
562 579 580 563
563 580 581 564
564 581 582 565
565 582 583 566
566 583 584 567
567 584 585 568
568 585 586 569
569 586 587 570
570 587 588 571
571 588 589 572
572 589 590 573
573 590 591 574