TITLE = "AGPS 3D Finite Element Data"
VARIABLES = "x", "y", "z", "cp1"
ZONE T="MIXED", N=1320, E=1248, DATAPACKING=BLOCK, ZONETYPE=FEQUADRILATERAL
98.27 97.635 97.0 96.365 95.73 94.937 94.143 93.349 92.555 91.762 90.968 90.174 89.38 88.745 88.11 87.475 86.84 87.475 88.11 88.745 89.38 90.174 90.968 91.762 92.555 93.349 94.143 94.937 95.73 96.365 97.0 97.635 98.27 98.2049 97.5771 96.9493 96.3216 95.6938 94.9098 94.1249 93.3399 92.555 91.771 90.9861 90.2011 89.4162 88.7884 88.1607 87.5329 86.9051 87.5329 88.1607 88.7884 89.4162 90.2011 90.9861 91.771 92.555 93.3399 94.1249 94.9098 95.6938 96.3216 96.9493 97.5771 98.2049 98.1397 97.5192 96.8987 96.2781 95.6576 94.8827 94.1068 93.3309 92.555 91.7801 91.0042 90.2283 89.4524 88.8318 88.2113 87.5908 86.9703 87.5908 88.2113 88.8318 89.4524 90.2283 91.0042 91.7801 92.555 93.3309 94.1068 94.8827 95.6576 96.2781 96.8987 97.5192 98.1397 98.0746 97.4613 96.848 96.2347 95.6214 94.8555 94.0887 93.3218 92.555 91.7891 91.0222 90.2554 89.4885 88.8753 88.262 87.6487 87.0354 87.6487 88.262 88.8753 89.4885 90.2554 91.0222 91.7891 92.555 93.3218 94.0887 94.8555 95.6214 96.2347 96.848 97.4613 98.0746 98.0094 97.4034 96.7973 96.1913 95.5852 94.8284 94.0706 93.3128 92.555 91.7981 91.0403 90.2825 89.5247 88.9187 88.3126 87.7066 87.1005 87.7066 88.3126 88.9187 89.5247 90.2825 91.0403 91.7981 92.555 93.3128 94.0706 94.8284 95.5852 96.1913 96.7973 97.4034 98.0094 97.9443 97.3455 96.7467 96.1478 95.549 94.8012 94.0525 93.3037 92.555 91.8072 91.0584 90.3096 89.5609 88.9621 88.3633 87.7645 87.1656 87.7645 88.3633 88.9621 89.5609 90.3096 91.0584 91.8072 92.555 93.3037 94.0525 94.8012 95.549 96.1478 96.7467 97.3455 97.9443 97.8791 97.2876 96.696 96.1044 95.5128 94.7741 94.0344 93.2947 92.555 91.8162 91.0765 90.3368 89.5971 89.0055 88.4139 87.8223 87.2308 87.8223 88.4139 89.0055 89.5971 90.3368 91.0765 91.8162 92.555 93.2947 94.0344 94.7741 95.5128 96.1044 96.696 97.2876 97.8791 97.814 97.2297 96.6453 96.061 95.4766 94.7469 94.0163 93.2856 92.5549 91.8252 91.0946 90.3639 89.6332 89.0489 88.4646 87.8802 87.2959 87.8802 88.4646 89.0489 89.6332 90.3639 91.0946 91.8252 92.5549 93.2856 94.0163 94.7469 95.4766 96.061 96.6453 97.2297 97.814 97.7488 97.1717 96.5946 96.0175 95.4404 94.7197 93.9981 93.2765 92.5549 91.8342 91.1126 90.391 89.6694 89.0923 88.5152 87.9381 87.361 87.9381 88.5152 89.0923 89.6694 90.391 91.1126 91.8342 92.5549 93.2765 93.9981 94.7197 95.4404 96.0175 96.5946 97.1717 97.7488 97.6837 97.1138 96.544 95.9741 95.4042 94.6926 93.98 93.2675 92.5549 91.8433 91.1307 90.4182 89.7056 89.1357 88.5659 87.996 87.4262 87.996 88.5659 89.1357 89.7056 90.4182 91.1307 91.8433 92.5549 93.2675 93.98 94.6926 95.4042 95.9741 96.544 97.1138 97.6837 97.6186 97.0559 96.4933 95.9307 95.368 94.6654 93.9619 93.2584 92.5549 91.8523 91.1488 90.4453 89.7418 89.1792 88.6165 88.0539 87.4913 88.0539 88.6165 89.1792 89.7418 90.4453 91.1488 91.8523 92.5549 93.2584 93.9619 94.6654 95.368 95.9307 96.4933 97.0559 97.6186 97.5534 96.998 96.4426 95.8872 95.3319 94.6383 93.9438 93.2494 92.5549 91.8613 91.1669 90.4724 89.778 89.2226 88.6672 88.1118 87.5564 88.1118 88.6672 89.2226 89.778 90.4724 91.1669 91.8613 92.5549 93.2494 93.9438 94.6383 95.3319 95.8872 96.4426 96.998 97.5534 97.4883 96.9401 96.392 95.8438 95.2957 94.6111 93.9257 93.2403 92.5549 91.8704 91.185 90.4995 89.8141 89.266 88.7178 88.1697 87.6215 88.1697 88.7178 89.266 89.8141 90.4995 91.185 91.8704 92.5549 93.2403 93.9257 94.6111 95.2957 95.8438 96.392 96.9401 97.4883 97.4231 96.8822 96.3413 95.8004 95.2595 94.584 93.9076 93.2312 92.5549 91.8794 91.203 90.5267 89.8503 89.3094 88.7685 88.2276 87.6867 88.2276 88.7685 89.3094 89.8503 90.5267 91.203 91.8794 92.5549 93.2312 93.9076 94.584 95.2595 95.8004 96.3413 96.8822 97.4231 97.358 96.8243 96.2906 95.757 95.2233 94.5568 93.8895 93.2222 92.5549 91.8884 91.2211 90.5538 89.8865 89.3528 88.8191 88.2855 87.7518 88.2855 88.8191 89.3528 89.8865 90.5538 91.2211 91.8884 92.5549 93.2222 93.8895 94.5568 95.2233 95.757 96.2906 96.8243 97.358 97.2928 96.7664 96.24 95.7135 95.1871 94.5296 93.8714 93.2131 92.5549 91.8975 91.2392 90.5809 89.9227 89.3962 88.8698 88.3434 87.8169 88.3434 88.8698 89.3962 89.9227 90.5809 91.2392 91.8975 92.5549 93.2131 93.8714 94.5296 95.1871 95.7135 96.24 96.7664 97.2928 97.2277 96.7085 96.1893 95.6701 95.1509 94.5025 93.8533 93.2041 92.5549 91.9065 91.2573 90.6081 89.9589 89.4397 88.9205 88.4013 87.882 88.4013 88.9205 89.4397 89.9589 90.6081 91.2573 91.9065 92.5549 93.2041 93.8533 94.5025 95.1509 95.6701 96.1893 96.7085 97.2277 97.1625 96.6506 96.1386 95.6266 95.1147 94.4753 93.8352 93.195 92.5549 91.9155 91.2754 90.6352 89.995 89.4831 88.9711 88.4591 87.9472 88.4591 88.9711 89.4831 89.995 90.6352 91.2754 91.9155 92.5549 93.195 93.8352 94.4753 95.1147 95.6266 96.1386 96.6506 97.1625 97.0974 96.5927 96.0879 95.5832 95.0785 94.4482 93.8171 93.186 92.5549 91.9245 91.2934 90.6623 90.0312 89.5265 89.0218 88.517 88.0123 88.517 89.0218 89.5265 90.0312 90.6623 91.2934 91.9245 92.5549 93.186 93.8171 94.4482 95.0785 95.5832 96.0879 96.5927 97.0974 97.0323 96.5348 96.0373 95.5398 95.0423 94.421 93.799 93.1769 92.5548 91.9336 91.3115 90.6895 90.0674 89.5699 89.0724 88.5749 88.0774 88.5749 89.0724 89.5699 90.0674 90.6895 91.3115 91.9336 92.5548 93.1769 93.799 94.421 95.0423 95.5398 96.0373 96.5348 97.0323 96.9671 96.4769 95.9866 95.4964 95.0061 94.3939 93.7809 93.1678 92.5548 91.9426 91.3296 90.7166 90.1036 89.6133 89.1231 88.6328 88.1426 88.6328 89.1231 89.6133 90.1036 90.7166 91.3296 91.9426 92.5548 93.1678 93.7809 94.3939 95.0061 95.4964 95.9866 96.4769 96.9671 96.902 96.419 95.9359 95.4529 94.9699 94.3667 93.7627 93.1588 92.5548 91.9516 91.3477 90.7437 90.1398 89.6567 89.1737 88.6907 88.2077 88.6907 89.1737 89.6567 90.1398 90.7437 91.3477 91.9516 92.5548 93.1588 93.7627 94.3667 94.9699 95.4529 95.9359 96.419 96.902 96.8368 96.361 95.8853 95.4095 94.9337 94.3395 93.7446 93.1497 92.5548 91.9607 91.3658 90.7708 90.1759 89.7002 89.2244 88.7486 88.2728 88.7486 89.2244 89.7002 90.1759 90.7708 91.3658 91.9607 92.5548 93.1497 93.7446 94.3395 94.9337 95.4095 95.8853 96.361 96.8368 96.7717 96.3031 95.8346 95.3661 94.8975 94.3124 93.7265 93.1407 92.5548 91.9697 91.3838 90.798 90.2121 89.7436 89.275 88.8065 88.338 88.8065 89.275 89.7436 90.2121 90.798 91.3838 91.9697 92.5548 93.1407 93.7265 94.3124 94.8975 95.3661 95.8346 96.3031 96.7717 96.7065 96.2452 95.7839 95.3226 94.8613 94.2852 93.7084 93.1316 92.5548 91.9787 91.4019 90.8251 90.2483 89.787 89.3257 88.8644 88.4031 88.8644 89.3257 89.787 90.2483 90.8251 91.4019 91.9787 92.5548 93.1316 93.7084 94.2852 94.8613 95.3226 95.7839 96.2452 96.7065 96.6414 96.1873 95.7333 95.2792 94.8251 94.2581 93.6903 93.1226 92.5548 91.9877 91.42 90.8522 90.2845 89.8304 89.3763 88.9223 88.4682 88.9223 89.3763 89.8304 90.2845 90.8522 91.42 91.9877 92.5548 93.1226 93.6903 94.2581 94.8251 95.2792 95.7333 96.1873 96.6414 96.5762 96.1294 95.6826 95.2358 94.7889 94.2309 93.6722 93.1135 92.5548 91.9968 91.4381 90.8794 90.3206 89.8738 89.427 88.9802 88.5333 88.9802 89.427 89.8738 90.3206 90.8794 91.4381 91.9968 92.5548 93.1135 93.6722 94.2309 94.7889 95.2358 95.6826 96.1294 96.5762 96.5111 96.0715 95.6319 95.1923 94.7527 94.2038 93.6541 93.1044 92.5548 92.0058 91.4561 90.9065 90.3568 89.9172 89.4776 89.0381 88.5985 89.0381 89.4776 89.9172 90.3568 90.9065 91.4561 92.0058 92.5548 93.1044 93.6541 94.2038 94.7527 95.1923 95.6319 96.0715 96.5111 96.446 96.0136 95.5812 95.1489 94.7165 94.1766 93.636 93.0954 92.5548 92.0148 91.4742 90.9336 90.393 89.9606 89.5283 89.0959 88.6636 89.0959 89.5283 89.9606 90.393 90.9336 91.4742 92.0148 92.5548 93.0954 93.636 94.1766 94.7165 95.1489 95.5812 96.0136 96.446 96.3808 95.9557 95.5306 95.1055 94.6803 94.1495 93.6179 93.0863 92.5548 92.0239 91.4923 90.9607 90.4292 90.0041 89.5789 89.1538 88.7287 89.1538 89.5789 90.0041 90.4292 90.9607 91.4923 92.0239 92.5548 93.0863 93.6179 94.1495 94.6803 95.1055 95.5306 95.9557 96.3808 96.3157 95.8978 95.4799 95.062 94.6441 94.1223 93.5998 93.0773 92.5548 92.0329 91.5104 90.9879 90.4654 90.0475 89.6296 89.2117 88.7938 89.2117 89.6296 90.0475 90.4654 90.9879 91.5104 92.0329 92.5548 93.0773 93.5998 94.1223 94.6441 95.062 95.4799 95.8978 96.3157 96.2505 95.8399 95.4292 95.0186 94.608 94.0951 93.5817 93.0682 92.5547 92.0419 91.5285 91.015 90.5015 90.0909 89.6803 89.2696 88.859 89.2696 89.6803 90.0909 90.5015 91.015 91.5285 92.0419 92.5547 93.0682 93.5817 94.0951 94.608 95.0186 95.4292 95.8399 96.2505 96.1854 95.782 95.3786 94.9752 94.5718 94.068 93.5636 93.0592 92.5547 92.051 91.5465 91.0421 90.5377 90.1343 89.7309 89.3275 88.9241 89.3275 89.7309 90.1343 90.5377 91.0421 91.5465 92.051 92.5547 93.0592 93.5636 94.068 94.5718 94.9752 95.3786 95.782 96.1854 96.1202 95.7241 95.3279 94.9317 94.5356 94.0408 93.5455 93.0501 92.5547 92.06 91.5646 91.0693 90.5739 90.1777 89.7816 89.3854 88.9892 89.3854 89.7816 90.1777 90.5739 91.0693 91.5646 92.06 92.5547 93.0501 93.5455 94.0408 94.5356 94.9317 95.3279 95.7241 96.1202 96.0551 95.6662 95.2772 94.8883 94.4994 94.0137 93.5274 93.041 92.5547 92.069 91.5827 91.0964 90.6101 90.2211 89.8322 89.4433 89.0544 89.4433 89.8322 90.2211 90.6101 91.0964 91.5827 92.069 92.5547 93.041 93.5274 94.0137 94.4994 94.8883 95.2772 95.6662 96.0551 95.9899 95.6083 95.2266 94.8449 94.4632 93.9865 93.5092 93.032 92.5547 92.078 91.6008 91.1235 90.6463 90.2646 89.8829 89.5012 89.1195 89.5012 89.8829 90.2646 90.6463 91.1235 91.6008 92.078 92.5547 93.032 93.5092 93.9865 94.4632 94.8449 95.2266 95.6083 95.9899 95.9248 95.5503 95.1759 94.8014 94.427 93.9594 93.4911 93.0229 92.5547 92.0871 91.6189 91.1507 90.6824 90.308 89.9335 89.5591 89.1846 89.5591 89.9335 90.308 90.6824 91.1507 91.6189 92.0871 92.5547 93.0229 93.4911 93.9594 94.427 94.8014 95.1759 95.5503 95.9248 95.8597 95.4924 95.1252 94.758 94.3908 93.9322 93.473 93.0139 92.5547 92.0961 91.6369 91.1778 90.7186 90.3514 89.9842 89.617 89.2497 89.617 89.9842 90.3514 90.7186 91.1778 91.6369 92.0961 92.5547 93.0139 93.473 93.9322 94.3908 94.758 95.1252 95.4924 95.8597 95.7945 95.4345 95.0745 94.7146 94.3546 93.905 93.4549 93.0048 92.5547 92.1051 91.655 91.2049 90.7548 90.3948 90.0348 89.6749 89.3149 89.6749 90.0348 90.3948 90.7548 91.2049 91.655 92.1051 92.5547 93.0048 93.4549 93.905 94.3546 94.7146 95.0745 95.4345 95.7945 95.7294 95.3766 95.0239 94.6711 94.3184 93.8779 93.4368 92.9958 92.5547 92.1142 91.6731 91.232 90.791 90.4382 90.0855 89.7327 89.38 89.7327 90.0855 90.4382 90.791 91.232 91.6731 92.1142 92.5547 92.9958 93.4368 93.8779 94.3184 94.6711 95.0239 95.3766 95.7294
2.6941 2.5958 2.4975 2.3992 2.3016 2.3016 2.3016 2.3016 2.3016 2.3016 2.3016 2.3016 2.3016 2.3992 2.4975 2.5958 2.6941 2.7924 2.8907 2.9889 3.0865 3.0865 3.0865 3.0865 3.0865 3.0865 3.0865 3.0865 3.0865 2.9889 2.8907 2.7924 2.6941 2.9013 2.8041 2.707 2.6098 2.5133 2.5133 2.5133 2.5133 2.5133 2.5133 2.5133 2.5133 2.5133 2.6098 2.707 2.8041 2.9013 2.9985 3.0956 3.1928 3.2893 3.2893 3.2893 3.2893 3.2893 3.2893 3.2893 3.2893 3.2893 3.1928 3.0956 2.9985 2.9013 3.1086 3.0125 2.9165 2.8204 2.7251 2.7251 2.7251 2.7251 2.7251 2.7251 2.7251 2.7251 2.7251 2.8204 2.9165 3.0125 3.1086 3.2046 3.3006 3.3967 3.492 3.492 3.492 3.492 3.492 3.492 3.492 3.492 3.492 3.3967 3.3006 3.2046 3.1086 3.3158 3.2209 3.1259 3.031 2.9368 2.9368 2.9368 2.9368 2.9368 2.9368 2.9368 2.9368 2.9368 3.031 3.1259 3.2209 3.3158 3.4107 3.5056 3.6006 3.6948 3.6948 3.6948 3.6948 3.6948 3.6948 3.6948 3.6948 3.6948 3.6006 3.5056 3.4107 3.3158 3.523 3.4292 3.3354 3.2416 3.1485 3.1485 3.1485 3.1485 3.1485 3.1485 3.1485 3.1485 3.1485 3.2416 3.3354 3.4292 3.523 3.6168 3.7106 3.8044 3.8976 3.8976 3.8976 3.8976 3.8976 3.8976 3.8976 3.8976 3.8976 3.8044 3.7106 3.6168 3.523 3.7303 3.6376 3.5449 3.4522 3.3602 3.3602 3.3602 3.3602 3.3602 3.3602 3.3602 3.3602 3.3602 3.4522 3.5449 3.6376 3.7303 3.8229 3.9156 4.0083 4.1003 4.1003 4.1003 4.1003 4.1003 4.1003 4.1003 4.1003 4.1003 4.0083 3.9156 3.8229 3.7303 3.9375 3.8459 3.7544 3.6628 3.5719 3.5719 3.5719 3.5719 3.5719 3.5719 3.5719 3.5719 3.5719 3.6628 3.7544 3.8459 3.9375 4.0291 4.1206 4.2122 4.3031 4.3031 4.3031 4.3031 4.3031 4.3031 4.3031 4.3031 4.3031 4.2122 4.1206 4.0291 3.9375 4.1447 4.0543 3.9638 3.8734 3.7836 3.7836 3.7836 3.7836 3.7836 3.7836 3.7836 3.7836 3.7836 3.8734 3.9638 4.0543 4.1447 4.2352 4.3256 4.4161 4.5059 4.5059 4.5059 4.5059 4.5059 4.5059 4.5059 4.5059 4.5059 4.4161 4.3256 4.2352 4.1447 4.352 4.2626 4.1733 4.084 3.9953 3.9953 3.9953 3.9953 3.9953 3.9953 3.9953 3.9953 3.9953 4.084 4.1733 4.2626 4.352 4.4413 4.5306 4.6199 4.7086 4.7086 4.7086 4.7086 4.7086 4.7086 4.7086 4.7086 4.7086 4.6199 4.5306 4.4413 4.352 4.5592 4.471 4.3828 4.2946 4.207 4.207 4.207 4.207 4.207 4.207 4.207 4.207 4.207 4.2946 4.3828 4.471 4.5592 4.6474 4.7356 4.8238 4.9114 4.9114 4.9114 4.9114 4.9114 4.9114 4.9114 4.9114 4.9114 4.8238 4.7356 4.6474 4.5592 4.7664 4.6794 4.5923 4.5052 4.4187 4.4187 4.4187 4.4187 4.4187 4.4187 4.4187 4.4187 4.4187 4.5052 4.5923 4.6794 4.7664 4.8535 4.9406 5.0277 5.1142 5.1142 5.1142 5.1142 5.1142 5.1142 5.1142 5.1142 5.1142 5.0277 4.9406 4.8535 4.7664 4.9737 4.8877 4.8017 4.7158 4.6304 4.6304 4.6304 4.6304 4.6304 4.6304 4.6304 4.6304 4.6304 4.7158 4.8017 4.8877 4.9737 5.0596 5.1456 5.2316 5.3169 5.3169 5.3169 5.3169 5.3169 5.3169 5.3169 5.3169 5.3169 5.2316 5.1456 5.0596 4.9737 5.1809 5.0961 5.0112 4.9264 4.8421 4.8421 4.8421 4.8421 4.8421 4.8421 4.8421 4.8421 4.8421 4.9264 5.0112 5.0961 5.1809 5.2658 5.3506 5.4355 5.5197 5.5197 5.5197 5.5197 5.5197 5.5197 5.5197 5.5197 5.5197 5.4355 5.3506 5.2658 5.1809 5.3882 5.3044 5.2207 5.137 5.0539 5.0539 5.0539 5.0539 5.0539 5.0539 5.0539 5.0539 5.0539 5.137 5.2207 5.3044 5.3882 5.4719 5.5556 5.6393 5.7225 5.7225 5.7225 5.7225 5.7225 5.7225 5.7225 5.7225 5.7225 5.6393 5.5556 5.4719 5.3882 5.5954 5.5128 5.4302 5.3476 5.2656 5.2656 5.2656 5.2656 5.2656 5.2656 5.2656 5.2656 5.2656 5.3476 5.4302 5.5128 5.5954 5.678 5.7606 5.8432 5.9252 5.9252 5.9252 5.9252 5.9252 5.9252 5.9252 5.9252 5.9252 5.8432 5.7606 5.678 5.5954 5.8026 5.7211 5.6397 5.5582 5.4773 5.4773 5.4773 5.4773 5.4773 5.4773 5.4773 5.4773 5.4773 5.5582 5.6397 5.7211 5.8026 5.8841 5.9656 6.0471 6.128 6.128 6.128 6.128 6.128 6.128 6.128 6.128 6.128 6.0471 5.9656 5.8841 5.8026 6.0099 5.9295 5.8491 5.7688 5.689 5.689 5.689 5.689 5.689 5.689 5.689 5.689 5.689 5.7688 5.8491 5.9295 6.0099 6.0902 6.1706 6.251 6.3307 6.3307 6.3307 6.3307 6.3307 6.3307 6.3307 6.3307 6.3307 6.251 6.1706 6.0902 6.0099 6.2171 6.1379 6.0586 5.9794 5.9007 5.9007 5.9007 5.9007 5.9007 5.9007 5.9007 5.9007 5.9007 5.9794 6.0586 6.1379 6.2171 6.2963 6.3756 6.4548 6.5335 6.5335 6.5335 6.5335 6.5335 6.5335 6.5335 6.5335 6.5335 6.4548 6.3756 6.2963 6.2171 6.4243 6.3462 6.2681 6.19 6.1124 6.1124 6.1124 6.1124 6.1124 6.1124 6.1124 6.1124 6.1124 6.19 6.2681 6.3462 6.4243 6.5025 6.5806 6.6587 6.7363 6.7363 6.7363 6.7363 6.7363 6.7363 6.7363 6.7363 6.7363 6.6587 6.5806 6.5025 6.4243 6.6316 6.5546 6.4776 6.4006 6.3241 6.3241 6.3241 6.3241 6.3241 6.3241 6.3241 6.3241 6.3241 6.4006 6.4776 6.5546 6.6316 6.7086 6.7856 6.8626 6.939 6.939 6.939 6.939 6.939 6.939 6.939 6.939 6.939 6.8626 6.7856 6.7086 6.6316 6.8388 6.7629 6.687 6.6112 6.5358 6.5358 6.5358 6.5358 6.5358 6.5358 6.5358 6.5358 6.5358 6.6112 6.687 6.7629 6.8388 6.9147 6.9906 7.0665 7.1418 7.1418 7.1418 7.1418 7.1418 7.1418 7.1418 7.1418 7.1418 7.0665 6.9906 6.9147 6.8388 7.046 6.9713 6.8965 6.8218 6.7475 6.7475 6.7475 6.7475 6.7475 6.7475 6.7475 6.7475 6.7475 6.8218 6.8965 6.9713 7.046 7.1208 7.1956 7.2703 7.3446 7.3446 7.3446 7.3446 7.3446 7.3446 7.3446 7.3446 7.3446 7.2703 7.1956 7.1208 7.046 7.2533 7.1796 7.106 7.0324 6.9592 6.9592 6.9592 6.9592 6.9592 6.9592 6.9592 6.9592 6.9592 7.0324 7.106 7.1796 7.2533 7.3269 7.4006 7.4742 7.5473 7.5473 7.5473 7.5473 7.5473 7.5473 7.5473 7.5473 7.5473 7.4742 7.4006 7.3269 7.2533 7.4605 7.388 7.3155 7.243 7.171 7.171 7.171 7.171 7.171 7.171 7.171 7.171 7.171 7.243 7.3155 7.388 7.4605 7.533 7.6056 7.6781 7.7501 7.7501 7.7501 7.7501 7.7501 7.7501 7.7501 7.7501 7.7501 7.6781 7.6056 7.533 7.4605 7.6678 7.5964 7.525 7.4535 7.3827 7.3827 7.3827 7.3827 7.3827 7.3827 7.3827 7.3827 7.3827 7.4535 7.525 7.5964 7.6678 7.7392 7.8106 7.882 7.9529 7.9529 7.9529 7.9529 7.9529 7.9529 7.9529 7.9529 7.9529 7.882 7.8106 7.7392 7.6678 7.875 7.8047 7.7344 7.6641 7.5944 7.5944 7.5944 7.5944 7.5944 7.5944 7.5944 7.5944 7.5944 7.6641 7.7344 7.8047 7.875 7.9453 8.0156 8.0858 8.1556 8.1556 8.1556 8.1556 8.1556 8.1556 8.1556 8.1556 8.1556 8.0858 8.0156 7.9453 7.875 8.0822 8.0131 7.9439 7.8747 7.8061 7.8061 7.8061 7.8061 7.8061 7.8061 7.8061 7.8061 7.8061 7.8747 7.9439 8.0131 8.0822 8.1514 8.2206 8.2897 8.3584 8.3584 8.3584 8.3584 8.3584 8.3584 8.3584 8.3584 8.3584 8.2897 8.2206 8.1514 8.0822 8.2895 8.2214 8.1534 8.0853 8.0178 8.0178 8.0178 8.0178 8.0178 8.0178 8.0178 8.0178 8.0178 8.0853 8.1534 8.2214 8.2895 8.3575 8.4256 8.4936 8.5611 8.5611 8.5611 8.5611 8.5611 8.5611 8.5611 8.5611 8.5611 8.4936 8.4256 8.3575 8.2895 8.4967 8.4298 8.3629 8.2959 8.2295 8.2295 8.2295 8.2295 8.2295 8.2295 8.2295 8.2295 8.2295 8.2959 8.3629 8.4298 8.4967 8.5636 8.6305 8.6975 8.7639 8.7639 8.7639 8.7639 8.7639 8.7639 8.7639 8.7639 8.7639 8.6975 8.6305 8.5636 8.4967 8.7039 8.6381 8.5723 8.5065 8.4412 8.4412 8.4412 8.4412 8.4412 8.4412 8.4412 8.4412 8.4412 8.5065 8.5723 8.6381 8.7039 8.7697 8.8355 8.9013 8.9667 8.9667 8.9667 8.9667 8.9667 8.9667 8.9667 8.9667 8.9667 8.9013 8.8355 8.7697 8.7039 8.9112 8.8465 8.7818 8.7171 8.6529 8.6529 8.6529 8.6529 8.6529 8.6529 8.6529 8.6529 8.6529 8.7171 8.7818 8.8465 8.9112 8.9759 9.0405 9.1052 9.1694 9.1694 9.1694 9.1694 9.1694 9.1694 9.1694 9.1694 9.1694 9.1052 9.0405 8.9759 8.9112 9.1184 9.0549 8.9913 8.9277 8.8646 8.8646 8.8646 8.8646 8.8646 8.8646 8.8646 8.8646 8.8646 8.9277 8.9913 9.0549 9.1184 9.182 9.2455 9.3091 9.3722 9.3722 9.3722 9.3722 9.3722 9.3722 9.3722 9.3722 9.3722 9.3091 9.2455 9.182 9.1184 9.3257 9.2632 9.2008 9.1383 9.0763 9.0763 9.0763 9.0763 9.0763 9.0763 9.0763 9.0763 9.0763 9.1383 9.2008 9.2632 9.3257 9.3881 9.4505 9.513 9.575 9.575 9.575 9.575 9.575 9.575 9.575 9.575 9.575 9.513 9.4505 9.3881 9.3257 9.5329 9.4716 9.4102 9.3489 9.288 9.288 9.288 9.288 9.288 9.288 9.288 9.288 9.288 9.3489 9.4102 9.4716 9.5329 9.5942 9.6555 9.7168 9.7777 9.7777 9.7777 9.7777 9.7777 9.7777 9.7777 9.7777 9.7777 9.7168 9.6555 9.5942 9.5329 9.7401 9.6799 9.6197 9.5595 9.4998 9.4998 9.4998 9.4998 9.4998 9.4998 9.4998 9.4998 9.4998 9.5595 9.6197 9.6799 9.7401 9.8003 9.8605 9.9207 9.9805 9.9805 9.9805 9.9805 9.9805 9.9805 9.9805 9.9805 9.9805 9.9207 9.8605 9.8003 9.7401 9.9474 9.8883 9.8292 9.7701 9.7115 9.7115 9.7115 9.7115 9.7115 9.7115 9.7115 9.7115 9.7115 9.7701 9.8292 9.8883 9.9474 10.0064 10.0655 10.1246 10.1833 10.1833 10.1833 10.1833 10.1833 10.1833 10.1833 10.1833 10.1833 10.1246 10.0655 10.0064 9.9474 10.1546 10.0966 10.0387 9.9807 9.9232 9.9232 9.9232 9.9232 9.9232 9.9232 9.9232 9.9232 9.9232 9.9807 10.0387 10.0966 10.1546 10.2126 10.2705 10.3285 10.386 10.386 10.386 10.386 10.386 10.386 10.386 10.386 10.386 10.3285 10.2705 10.2126 10.1546 10.3618 10.305 10.2482 10.1913 10.1349 10.1349 10.1349 10.1349 10.1349 10.1349 10.1349 10.1349 10.1349 10.1913 10.2482 10.305 10.3618 10.4187 10.4755 10.5324 10.5888 10.5888 10.5888 10.5888 10.5888 10.5888 10.5888 10.5888 10.5888 10.5324 10.4755 10.4187 10.3618 10.5691 10.5134 10.4576 10.4019 10.3466 10.3466 10.3466 10.3466 10.3466 10.3466 10.3466 10.3466 10.3466 10.4019 10.4576 10.5134 10.5691 10.6248 10.6805 10.7362 10.7915 10.7915 10.7915 10.7915 10.7915 10.7915 10.7915 10.7915 10.7915 10.7362 10.6805 10.6248 10.5691 10.7763 10.7217 10.6671 10.6125 10.5583 10.5583 10.5583 10.5583 10.5583 10.5583 10.5583 10.5583 10.5583 10.6125 10.6671 10.7217 10.7763 10.8309 10.8855 10.9401 10.9943 10.9943 10.9943 10.9943 10.9943 10.9943 10.9943 10.9943 10.9943 10.9401 10.8855 10.8309 10.7763
2.6941 2.7924 2.8907 2.9889 3.0865 3.0865 3.0865 3.0865 3.0865 3.0865 3.0865 3.0865 3.0865 2.9889 2.8907 2.7924 2.6941 2.5958 2.4975 2.3992 2.3016 2.3016 2.3016 2.3016 2.3016 2.3016 2.3016 2.3016 2.3016 2.3992 2.4975 2.5958 2.6941 2.9013 2.9985 3.0956 3.1928 3.2893 3.2893 3.2893 3.2893 3.2893 3.2893 3.2893 3.2893 3.2893 3.1928 3.0956 2.9985 2.9013 2.8041 2.707 2.6098 2.5133 2.5133 2.5133 2.5133 2.5133 2.5133 2.5133 2.5133 2.5133 2.6098 2.707 2.8041 2.9013 3.1086 3.2046 3.3006 3.3967 3.492 3.492 3.492 3.492 3.492 3.492 3.492 3.492 3.492 3.3967 3.3006 3.2046 3.1086 3.0125 2.9165 2.8204 2.7251 2.7251 2.7251 2.7251 2.7251 2.7251 2.7251 2.7251 2.7251 2.8204 2.9165 3.0125 3.1086 3.3158 3.4107 3.5056 3.6006 3.6948 3.6948 3.6948 3.6948 3.6948 3.6948 3.6948 3.6948 3.6948 3.6006 3.5056 3.4107 3.3158 3.2209 3.1259 3.031 2.9368 2.9368 2.9368 2.9368 2.9368 2.9368 2.9368 2.9368 2.9368 3.031 3.1259 3.2209 3.3158 3.523 3.6168 3.7106 3.8044 3.8976 3.8976 3.8976 3.8976 3.8976 3.8976 3.8976 3.8976 3.8976 3.8044 3.7106 3.6168 3.523 3.4292 3.3354 3.2416 3.1485 3.1485 3.1485 3.1485 3.1485 3.1485 3.1485 3.1485 3.1485 3.2416 3.3354 3.4292 3.523 3.7303 3.8229 3.9156 4.0083 4.1003 4.1003 4.1003 4.1003 4.1003 4.1003 4.1003 4.1003 4.1003 4.0083 3.9156 3.8229 3.7303 3.6376 3.5449 3.4522 3.3602 3.3602 3.3602 3.3602 3.3602 3.3602 3.3602 3.3602 3.3602 3.4522 3.5449 3.6376 3.7303 3.9375 4.0291 4.1206 4.2122 4.3031 4.3031 4.3031 4.3031 4.3031 4.3031 4.3031 4.3031 4.3031 4.2122 4.1206 4.0291 3.9375 3.8459 3.7544 3.6628 3.5719 3.5719 3.5719 3.5719 3.5719 3.5719 3.5719 3.5719 3.5719 3.6628 3.7544 3.8459 3.9375 4.1447 4.2352 4.3256 4.4161 4.5059 4.5059 4.5059 4.5059 4.5059 4.5059 4.5059 4.5059 4.5059 4.4161 4.3256 4.2352 4.1447 4.0543 3.9638 3.8734 3.7836 3.7836 3.7836 3.7836 3.7836 3.7836 3.7836 3.7836 3.7836 3.8734 3.9638 4.0543 4.1447 4.352 4.4413 4.5306 4.6199 4.7086 4.7086 4.7086 4.7086 4.7086 4.7086 4.7086 4.7086 4.7086 4.6199 4.5306 4.4413 4.352 4.2626 4.1733 4.084 3.9953 3.9953 3.9953 3.9953 3.9953 3.9953 3.9953 3.9953 3.9953 4.084 4.1733 4.2626 4.352 4.5592 4.6474 4.7356 4.8238 4.9114 4.9114 4.9114 4.9114 4.9114 4.9114 4.9114 4.9114 4.9114 4.8238 4.7356 4.6474 4.5592 4.471 4.3828 4.2946 4.207 4.207 4.207 4.207 4.207 4.207 4.207 4.207 4.207 4.2946 4.3828 4.471 4.5592 4.7664 4.8535 4.9406 5.0277 5.1142 5.1142 5.1142 5.1142 5.1142 5.1142 5.1142 5.1142 5.1142 5.0277 4.9406 4.8535 4.7664 4.6794 4.5923 4.5052 4.4187 4.4187 4.4187 4.4187 4.4187 4.4187 4.4187 4.4187 4.4187 4.5052 4.5923 4.6794 4.7664 4.9737 5.0596 5.1456 5.2316 5.3169 5.3169 5.3169 5.3169 5.3169 5.3169 5.3169 5.3169 5.3169 5.2316 5.1456 5.0596 4.9737 4.8877 4.8017 4.7158 4.6304 4.6304 4.6304 4.6304 4.6304 4.6304 4.6304 4.6304 4.6304 4.7158 4.8017 4.8877 4.9737 5.1809 5.2658 5.3506 5.4355 5.5197 5.5197 5.5197 5.5197 5.5197 5.5197 5.5197 5.5197 5.5197 5.4355 5.3506 5.2658 5.1809 5.0961 5.0112 4.9264 4.8421 4.8421 4.8421 4.8421 4.8421 4.8421 4.8421 4.8421 4.8421 4.9264 5.0112 5.0961 5.1809 5.3882 5.4719 5.5556 5.6393 5.7225 5.7225 5.7225 5.7225 5.7225 5.7225 5.7225 5.7225 5.7225 5.6393 5.5556 5.4719 5.3882 5.3044 5.2207 5.137 5.0539 5.0539 5.0539 5.0539 5.0539 5.0539 5.0539 5.0539 5.0539 5.137 5.2207 5.3044 5.3882 5.5954 5.678 5.7606 5.8432 5.9252 5.9252 5.9252 5.9252 5.9252 5.9252 5.9252 5.9252 5.9252 5.8432 5.7606 5.678 5.5954 5.5128 5.4302 5.3476 5.2656 5.2656 5.2656 5.2656 5.2656 5.2656 5.2656 5.2656 5.2656 5.3476 5.4302 5.5128 5.5954 5.8026 5.8841 5.9656 6.0471 6.128 6.128 6.128 6.128 6.128 6.128 6.128 6.128 6.128 6.0471 5.9656 5.8841 5.8026 5.7211 5.6397 5.5582 5.4773 5.4773 5.4773 5.4773 5.4773 5.4773 5.4773 5.4773 5.4773 5.5582 5.6397 5.7211 5.8026 6.0099 6.0902 6.1706 6.251 6.3307 6.3307 6.3307 6.3307 6.3307 6.3307 6.3307 6.3307 6.3307 6.251 6.1706 6.0902 6.0099 5.9295 5.8491 5.7688 5.689 5.689 5.689 5.689 5.689 5.689 5.689 5.689 5.689 5.7688 5.8491 5.9295 6.0099 6.2171 6.2963 6.3756 6.4548 6.5335 6.5335 6.5335 6.5335 6.5335 6.5335 6.5335 6.5335 6.5335 6.4548 6.3756 6.2963 6.2171 6.1379 6.0586 5.9794 5.9007 5.9007 5.9007 5.9007 5.9007 5.9007 5.9007 5.9007 5.9007 5.9794 6.0586 6.1379 6.2171 6.4243 6.5025 6.5806 6.6587 6.7363 6.7363 6.7363 6.7363 6.7363 6.7363 6.7363 6.7363 6.7363 6.6587 6.5806 6.5025 6.4243 6.3462 6.2681 6.19 6.1124 6.1124 6.1124 6.1124 6.1124 6.1124 6.1124 6.1124 6.1124 6.19 6.2681 6.3462 6.4243 6.6316 6.7086 6.7856 6.8626 6.939 6.939 6.939 6.939 6.939 6.939 6.939 6.939 6.939 6.8626 6.7856 6.7086 6.6316 6.5546 6.4776 6.4006 6.3241 6.3241 6.3241 6.3241 6.3241 6.3241 6.3241 6.3241 6.3241 6.4006 6.4776 6.5546 6.6316 6.8388 6.9147 6.9906 7.0665 7.1418 7.1418 7.1418 7.1418 7.1418 7.1418 7.1418 7.1418 7.1418 7.0665 6.9906 6.9147 6.8388 6.7629 6.687 6.6112 6.5358 6.5358 6.5358 6.5358 6.5358 6.5358 6.5358 6.5358 6.5358 6.6112 6.687 6.7629 6.8388 7.046 7.1208 7.1956 7.2703 7.3446 7.3446 7.3446 7.3446 7.3446 7.3446 7.3446 7.3446 7.3446 7.2703 7.1956 7.1208 7.046 6.9713 6.8965 6.8218 6.7475 6.7475 6.7475 6.7475 6.7475 6.7475 6.7475 6.7475 6.7475 6.8218 6.8965 6.9713 7.046 7.2533 7.3269 7.4006 7.4742 7.5473 7.5473 7.5473 7.5473 7.5473 7.5473 7.5473 7.5473 7.5473 7.4742 7.4006 7.3269 7.2533 7.1796 7.106 7.0324 6.9592 6.9592 6.9592 6.9592 6.9592 6.9592 6.9592 6.9592 6.9592 7.0324 7.106 7.1796 7.2533 7.4605 7.533 7.6056 7.6781 7.7501 7.7501 7.7501 7.7501 7.7501 7.7501 7.7501 7.7501 7.7501 7.6781 7.6056 7.533 7.4605 7.388 7.3155 7.243 7.171 7.171 7.171 7.171 7.171 7.171 7.171 7.171 7.171 7.243 7.3155 7.388 7.4605 7.6678 7.7392 7.8106 7.882 7.9529 7.9529 7.9529 7.9529 7.9529 7.9529 7.9529 7.9529 7.9529 7.882 7.8106 7.7392 7.6678 7.5964 7.525 7.4535 7.3827 7.3827 7.3827 7.3827 7.3827 7.3827 7.3827 7.3827 7.3827 7.4535 7.525 7.5964 7.6678 7.875 7.9453 8.0156 8.0858 8.1556 8.1556 8.1556 8.1556 8.1556 8.1556 8.1556 8.1556 8.1556 8.0858 8.0156 7.9453 7.875 7.8047 7.7344 7.6641 7.5944 7.5944 7.5944 7.5944 7.5944 7.5944 7.5944 7.5944 7.5944 7.6641 7.7344 7.8047 7.875 8.0822 8.1514 8.2206 8.2897 8.3584 8.3584 8.3584 8.3584 8.3584 8.3584 8.3584 8.3584 8.3584 8.2897 8.2206 8.1514 8.0822 8.0131 7.9439 7.8747 7.8061 7.8061 7.8061 7.8061 7.8061 7.8061 7.8061 7.8061 7.8061 7.8747 7.9439 8.0131 8.0822 8.2895 8.3575 8.4256 8.4936 8.5611 8.5611 8.5611 8.5611 8.5611 8.5611 8.5611 8.5611 8.5611 8.4936 8.4256 8.3575 8.2895 8.2214 8.1534 8.0853 8.0178 8.0178 8.0178 8.0178 8.0178 8.0178 8.0178 8.0178 8.0178 8.0853 8.1534 8.2214 8.2895 8.4967 8.5636 8.6305 8.6975 8.7639 8.7639 8.7639 8.7639 8.7639 8.7639 8.7639 8.7639 8.7639 8.6975 8.6305 8.5636 8.4967 8.4298 8.3629 8.2959 8.2295 8.2295 8.2295 8.2295 8.2295 8.2295 8.2295 8.2295 8.2295 8.2959 8.3629 8.4298 8.4967 8.7039 8.7697 8.8355 8.9013 8.9667 8.9667 8.9667 8.9667 8.9667 8.9667 8.9667 8.9667 8.9667 8.9013 8.8355 8.7697 8.7039 8.6381 8.5723 8.5065 8.4412 8.4412 8.4412 8.4412 8.4412 8.4412 8.4412 8.4412 8.4412 8.5065 8.5723 8.6381 8.7039 8.9112 8.9759 9.0405 9.1052 9.1694 9.1694 9.1694 9.1694 9.1694 9.1694 9.1694 9.1694 9.1694 9.1052 9.0405 8.9759 8.9112 8.8465 8.7818 8.7171 8.6529 8.6529 8.6529 8.6529 8.6529 8.6529 8.6529 8.6529 8.6529 8.7171 8.7818 8.8465 8.9112 9.1184 9.182 9.2455 9.3091 9.3722 9.3722 9.3722 9.3722 9.3722 9.3722 9.3722 9.3722 9.3722 9.3091 9.2455 9.182 9.1184 9.0549 8.9913 8.9277 8.8646 8.8646 8.8646 8.8646 8.8646 8.8646 8.8646 8.8646 8.8646 8.9277 8.9913 9.0549 9.1184 9.3257 9.3881 9.4505 9.513 9.575 9.575 9.575 9.575 9.575 9.575 9.575 9.575 9.575 9.513 9.4505 9.3881 9.3257 9.2632 9.2008 9.1383 9.0763 9.0763 9.0763 9.0763 9.0763 9.0763 9.0763 9.0763 9.0763 9.1383 9.2008 9.2632 9.3257 9.5329 9.5942 9.6555 9.7168 9.7777 9.7777 9.7777 9.7777 9.7777 9.7777 9.7777 9.7777 9.7777 9.7168 9.6555 9.5942 9.5329 9.4716 9.4102 9.3489 9.288 9.288 9.288 9.288 9.288 9.288 9.288 9.288 9.288 9.3489 9.4102 9.4716 9.5329 9.7401 9.8003 9.8605 9.9207 9.9805 9.9805 9.9805 9.9805 9.9805 9.9805 9.9805 9.9805 9.9805 9.9207 9.8605 9.8003 9.7401 9.6799 9.6197 9.5595 9.4998 9.4998 9.4998 9.4998 9.4998 9.4998 9.4998 9.4998 9.4998 9.5595 9.6197 9.6799 9.7401 9.9474 10.0064 10.0655 10.1246 10.1833 10.1833 10.1833 10.1833 10.1833 10.1833 10.1833 10.1833 10.1833 10.1246 10.0655 10.0064 9.9474 9.8883 9.8292 9.7701 9.7115 9.7115 9.7115 9.7115 9.7115 9.7115 9.7115 9.7115 9.7115 9.7701 9.8292 9.8883 9.9474 10.1546 10.2126 10.2705 10.3285 10.386 10.386 10.386 10.386 10.386 10.386 10.386 10.386 10.386 10.3285 10.2705 10.2126 10.1546 10.0966 10.0387 9.9807 9.9232 9.9232 9.9232 9.9232 9.9232 9.9232 9.9232 9.9232 9.9232 9.9807 10.0387 10.0966 10.1546 10.3618 10.4187 10.4755 10.5324 10.5888 10.5888 10.5888 10.5888 10.5888 10.5888 10.5888 10.5888 10.5888 10.5324 10.4755 10.4187 10.3618 10.305 10.2482 10.1913 10.1349 10.1349 10.1349 10.1349 10.1349 10.1349 10.1349 10.1349 10.1349 10.1913 10.2482 10.305 10.3618 10.5691 10.6248 10.6805 10.7362 10.7915 10.7915 10.7915 10.7915 10.7915 10.7915 10.7915 10.7915 10.7915 10.7362 10.6805 10.6248 10.5691 10.5134 10.4576 10.4019 10.3466 10.3466 10.3466 10.3466 10.3466 10.3466 10.3466 10.3466 10.3466 10.4019 10.4576 10.5134 10.5691 10.7763 10.8309 10.8855 10.9401 10.9943 10.9943 10.9943 10.9943 10.9943 10.9943 10.9943 10.9943 10.9943 10.9401 10.8855 10.8309 10.7763 10.7217 10.6671 10.6125 10.5583 10.5583 10.5583 10.5583 10.5583 10.5583 10.5583 10.5583 10.5583 10.6125 10.6671 10.7217 10.7763